<LesHouchesEvents version="3.0">
<header>
<!--
#*********************************************************************
#                                                                    *
#                        MadGraph5_aMC@NLO                           *
#                                                                    *
#                           Going Beyond                             *
#                                                                    *
#                   http://madgraph.hep.uiuc.edu                     *
#                   http://madgraph.phys.ucl.ac.be                   *
#                   http://amcatnlo.cern.ch                          *
#                                                                    *
#                     The MadGraph5_aMC@NLO team                     *
#                                                                    *
#....................................................................*
#                                                                    *
# This file contains all the information necessary to reproduce      *
# the events generated:                                              *
#                                                                    *
# 1. software version                                                *
# 2. proc_card          : code generation info including model       *
# 3. param_card         : model primary parameters in the LH format  *
# 4. run_card           : running parameters (collider and cuts)     *
# 5. pythia_card        : present only if pythia has been run        *
# 6. pgs_card           : present only if pgs has been run           *
# 7. delphes_cards      : present only if delphes has been run       *
#                                                                    *
#                                                                    *
#*********************************************************************
-->
<MGVersion>
3.4.0.RC2
</MGVersion>
<MG5ProcCard>
<![CDATA[
#************************************************************                                                                                         
#*                     MadGraph5_aMC@NLO                    *                                                                                         
#*                                                          *                                                                                         
#*                *                       *                 *                                                                                         
#*                  *        * *        *                   *                                                                                         
#*                    * * * * 5 * * * *                     *                                                                                         
#*                  *        * *        *                   *                                                                                         
#*                *                       *                 *                                                                                         
#*                                                          *                                                                                         
#*                                                          *                                                                                         
#*         VERSION 3.4.0.RC2             2022-04-16         *                                                                                         
#*                                                          *                                                                                         
#*    The MadGraph5_aMC@NLO Development Team - Find us at   *                                                                                         
#*    https://server06.fynu.ucl.ac.be/projects/madgraph     *                                                                                         
#*                                                          *                                                                                         
#************************************************************                                                                                         
#*                                                          *                                                                                         
#*               Command File for MadGraph5_aMC@NLO         *                                                                                         
#*                                                          *                                                                                         
#*     run as ./bin/mg5_aMC  filename                       *                                                                                         
#*                                                          *                                                                                         
#************************************************************                                                                                         
set group_subprocesses Auto                                                                                                                           
set ignore_six_quark_processes False                                                                                                                  
set low_mem_multicore_nlo_generation False                                                                                                            
set complex_mass_scheme False                                                                                                                         
set include_lepton_initiated_processes False                                                                                                          
set gauge unitary                                                                                                                                     
set loop_optimized_output True                                                                                                                        
set loop_color_flows False                                                                                                                            
set max_npoint_for_channel 0                                                                                                                          
set default_unset_couplings 99                                                                                                                        
set max_t_for_channel 99                                                                                                                              
set zerowidth_tchannel True                                                                                                                           
set nlo_mixed_expansion True                                                                                                                          
import model sm                                                                                                                                       
define p = g u c d s u~ c~ d~ s~                                                                                                                      
define j = g u c d s u~ c~ d~ s~                                                                                                                      
define l+ = e+ mu+                                                                                                                                    
define l- = e- mu-                                                                                                                                    
define vl = ve vm vt                                                                                                                                  
define vl~ = ve~ vm~ vt~                                                                                                                              
import model sm                                                                                                                                       
import model loop_sm                                                                                                                                  
generate p p > w+ w- [QCD]                                                                                                                            
output DoubleWeakBosonProduction_W_NLO
]]>
</MG5ProcCard>
<MGRunCard>
<![CDATA[
#***********************************************************************                                                                              
#                        MadGraph5_aMC@NLO                             *                                                                              
#                                                                      *                                                                              
#                      run_card.dat aMC@NLO                            *                                                                              
#                                                                      *                                                                              
#  This file is used to set the parameters of the run.                 *                                                                              
#                                                                      *                                                                              
#  Some notation/conventions:                                          *                                                                              
#                                                                      *                                                                              
#   Lines starting with a hash (#) are info or comments                *                                                                              
#                                                                      *                                                                              
#   mind the format:   value    = variable     ! comment               *                                                                              
#                                                                      *                                                                              
#   Some of the values of variables can be list. These can either be   *                                                                              
#   comma or space separated.                                          *                                                                              
#                                                                      *                                                                              
#   To display additional parameter, you can use the command:          *                                                                              
#      update to_full                                                  *                                                                              
#***********************************************************************                                                                              
#                                                                                                                                                     
#*******************                                                                                                                                  
# Running parameters                                                                                                                                  
#*******************                                                                                                                                  
#                                                                                                                                                     
#***********************************************************************                                                                              
# Tag name for the run (one word)                                      *                                                                              
#***********************************************************************                                                                              
  tag_1	= run_tag ! name of the run                                                                                                                   
#***********************************************************************                                                                              
# Number of LHE events (and their normalization) and the required      *                                                                              
# (relative) accuracy on the Xsec.                                     *                                                                              
# These values are ignored for fixed order runs                        *                                                                              
#***********************************************************************                                                                              
        100 = nevents                                                                                                                                 
  -1.0	= req_acc ! Required accuracy (-1=auto determined from nevents)                                                                                
  -1	= nevt_job ! Max number of events per job in event generation.                                                                                   
                 !  (-1= no split).                                                                                                                   
#***********************************************************************                                                                              
# Output format                                                                                                                                       
#***********************************************************************                                                                              
  -1.0	= time_of_flight ! threshold (in mm) below which the invariant livetime is not written (-1 means not written)                                  
  average	= event_norm ! average/sum/bias. Normalization of the weight in the LHEF                                                                    
#***********************************************************************                                                                              
# Number of points per itegration channel (ignored for aMC@NLO runs)   *                                                                              
#***********************************************************************                                                                              
  0.01	= req_acc_fo ! Required accuracy (-1=ignored, and use the                                                                                      
 	                   ! number of points and iter. below)                                                                                              
# These numbers are ignored except if req_acc_FO is equal to -1                                                                                       
  5000	= npoints_fo_grid ! number of points to setup grids                                                                                            
  4	= niters_fo_grid ! number of iter. to setup grids                                                                                                 
  10000	= npoints_fo ! number of points to compute Xsec                                                                                               
  6	= niters_fo ! number of iter. to compute Xsec                                                                                                     
#***********************************************************************                                                                              
# Random number seed                                                   *                                                                              
#***********************************************************************                                                                              
         37 =  iseed                                                                                                                                  
#***********************************************************************                                                                              
# Collider type and energy                                             *                                                                              
#***********************************************************************                                                                              
  1	= lpp1 ! beam 1 type (0 = no PDF)                                                                                                                 
  1	= lpp2 ! beam 2 type (0 = no PDF)                                                                                                                 
  6500.0	= ebeam1 ! beam 1 energy in GeV                                                                                                              
  6500.0	= ebeam2 ! beam 2 energy in GeV                                                                                                              
#***********************************************************************                                                                              
# PDF choice: this automatically fixes also alpha_s(MZ) and its evol.  *                                                                              
#***********************************************************************                                                                              
  nn23nlo	= pdlabel ! PDF set                                                                                                                         
  244600	= lhaid ! If pdlabel=lhapdf, this is the lhapdf number. Only                                                                                 
              ! numbers for central PDF sets are allowed. Can be a list;                                                                              
              ! PDF sets beyond the first are included via reweighting.                                                                               
#***********************************************************************                                                                              
# Include the NLO Monte Carlo subtr. terms for the following parton    *                                                                              
# shower (HERWIG6 | HERWIGPP | PYTHIA6Q | PYTHIA6PT | PYTHIA8)         *                                                                              
# WARNING: PYTHIA6PT works only for processes without FSR!!!!          *                                                                              
#***********************************************************************                                                                              
  HERWIG6	= parton_shower                                                                                                                             
  1.0	= shower_scale_factor ! multiply default shower starting                                                                                        
                                  ! scale by this factor                                                                                              
#***********************************************************************                                                                              
# Renormalization and factorization scales                             *                                                                              
# (Default functional form for the non-fixed scales is the sum of      *                                                                              
# the transverse masses divided by two of all final state particles    *                                                                              
# and partons. This can be changed in SubProcesses/set_scales.f or via *                                                                              
# dynamical_scale_choice option)                                       *                                                                              
#***********************************************************************                                                                              
  False	= fixed_ren_scale ! if .true. use fixed ren scale                                                                                             
  False	= fixed_fac_scale ! if .true. use fixed fac scale                                                                                             
  91.118	= mur_ref_fixed ! fixed ren reference scale                                                                                                  
  91.118	= muf_ref_fixed ! fixed fact reference scale                                                                                                 
  -1	= dynamical_scale_choice ! Choose one (or more) of the predefined                                                                                
           ! dynamical choices. Can be a list; scale choices beyond the                                                                               
           ! first are included via reweighting                                                                                                       
  1.0	= mur_over_ref ! ratio of current muR over reference muR                                                                                        
  1.0	= muf_over_ref ! ratio of current muF over reference muF                                                                                        
                                                                                                                                                      
#***********************************************************************                                                                              
# Reweight variables for scale dependence and PDF uncertainty          *                                                                              
#***********************************************************************                                                                              
  1.0, 2.0, 0.5	= rw_rscale ! muR factors to be included by reweighting                                                                               
  1.0, 2.0, 0.5	= rw_fscale ! muF factors to be included by reweighting                                                                               
  True	= reweight_scale ! Reweight to get scale variation using the                                                                                   
            ! rw_rscale and rw_fscale factors. Should be a list of                                                                                    
            ! booleans of equal length to dynamical_scale_choice to                                                                                   
            ! specify for which choice to include scale dependence.                                                                                   
  False	= reweight_pdf ! Reweight to get PDF uncertainty. Should be a                                                                                 
            ! list booleans of equal length to lhaid to specify for                                                                                   
            !  which PDF set to include the uncertainties.                                                                                            
#***********************************************************************                                                                              
# Store reweight information in the LHE file for off-line model-       *                                                                              
# parameter reweighting at NLO+PS accuracy                             *                                                                              
#***********************************************************************                                                                              
  False	= store_rwgt_info ! Store info for reweighting in LHE file                                                                                    
#***********************************************************************                                                                              
# ickkw parameter:                                                     *                                                                              
#   0: No merging                                                      *                                                                              
#   3: FxFx Merging - WARNING! Applies merging only at the hard-event  *                                                                              
#      level. After showering an MLM-type merging should be applied as *                                                                              
#      well. See http://amcatnlo.cern.ch/FxFx_merging.htm for details. *                                                                              
#   4: UNLOPS merging (with pythia8 only). No interface from within    *                                                                              
#      MG5_aMC available, but available in Pythia8.                    *                                                                              
#  -1: NNLL+NLO jet-veto computation. See arxiv:1412.8408 [hep-ph].    *                                                                              
#***********************************************************************                                                                              
  0	= ickkw                                                                                                                                           
#***********************************************************************                                                                              
#                                                                                                                                                     
#***********************************************************************                                                                              
# BW cutoff (M+/-bwcutoff*Gamma). Determines which resonances are      *                                                                              
# written in the LHE event file                                        *                                                                              
#***********************************************************************                                                                              
  15.0	= bwcutoff                                                                                                                                     
#***********************************************************************                                                                              
# Cuts on the jets. Jet clustering is performed by FastJet.            *                                                                              
#  - If gamma_is_j, photons are also clustered with jets.              *                                                                              
#    Otherwise, they will be treated as tagged particles and photon    *                                                                              
#    isolation will be applied. Note that photons in the real emission *                                                                              
#    will always be clustered with QCD partons.                        *                                                                              
#  - When matching to a parton shower, these generation cuts should be *                                                                              
#    considerably softer than the analysis cuts.                       *                                                                              
#  - More specific cuts can be specified in SubProcesses/cuts.f        *                                                                              
#***********************************************************************                                                                              
  1.0	= jetalgo ! FastJet jet algorithm (1=kT, 0=C/A, -1=anti-kT)                                                                                     
  0.7	= jetradius ! The radius parameter for the jet algorithm                                                                                        
  10.0	= ptj ! Min jet transverse momentum                                                                                                            
  -1.0	= etaj ! Max jet abs(pseudo-rap) (a value .lt.0 means no cut)                                                                                  
  False	= gamma_is_j ! Wether to cluster photons as jets or not                                                                                       
#***********************************************************************                                                                              
# Cuts on the charged leptons (e+, e-, mu+, mu-, tau+ and tau-)        *                                                                              
# More specific cuts can be specified in SubProcesses/cuts.f           *                                                                              
#***********************************************************************                                                                              
  0.0	= ptl ! Min lepton transverse momentum                                                                                                          
  5.0	= etal ! Max lepton abs(pseudo-rap) (a value .lt.0 means no cut)                                                                                
  0.0	= drll ! Min distance between opposite sign lepton pairs                                                                                        
  0.0	= drll_sf ! Min distance between opp. sign same-flavor lepton pairs                                                                             
  0.0	= mll ! Min inv. mass of all opposite sign lepton pairs                                                                                         
  30.0	= mll_sf ! Min inv. mass of all opp. sign same-flavor lepton pairs                                                                             
#***********************************************************************                                                                              
# Fermion-photon recombination parameters                              *                                                                              
# If Rphreco=0, no recombination is performed                          *                                                                              
#***********************************************************************                                                                              
  0.1	= rphreco ! Minimum fermion-photon distance for recombination                                                                                   
  -1.0	= etaphreco ! Maximum abs(pseudo-rap) for photons to be recombined (a value .lt.0 means no cut)                                                
  False	= lepphreco ! Recombine photons and leptons together                                                                                          
  False	= quarkphreco ! Recombine photons and quarks together                                                                                         
#***********************************************************************                                                                              
# Photon-isolation cuts, according to hep-ph/9801442                   *                                                                              
# Not applied if gamma_is_j                                            *                                                                              
# When ptgmin=0, all the other parameters are ignored                  *                                                                              
# More specific cuts can be specified in SubProcesses/cuts.f           *                                                                              
#***********************************************************************                                                                              
  20.0	= ptgmin ! Min photon transverse momentum                                                                                                      
  -1.0	= etagamma ! Max photon abs(pseudo-rap)                                                                                                        
  0.4	= r0gamma ! Radius of isolation code                                                                                                            
  1.0	= xn ! n parameter of eq.(3.4) in hep-ph/9801442                                                                                                
  1.0	= epsgamma ! epsilon_gamma parameter of eq.(3.4) in hep-ph/9801442                                                                              
  True	= isoem ! isolate photons from EM energy (photons and leptons)                                                                                 
#***********************************************************************                                                                              
# Cuts associated to MASSIVE particles identified by their PDG codes.  *                                                                              
# All cuts are applied to both particles and anti-particles, so use    *                                                                              
# POSITIVE PDG CODES only. Example of the syntax is {6 : 100} or       *                                                                              
# {6:100, 25:200} for multiple particles                               *                                                                              
#***********************************************************************                                                                              
  {}	= pt_min_pdg ! Min pT for a massive particle                                                                                                     
  {}	= pt_max_pdg ! Max pT for a massive particle                                                                                                     
  {}	= mxx_min_pdg ! inv. mass for any pair of (anti)particles                                                                                        
#***********************************************************************                                                                              
# Use PineAPPL to generate PDF-independent fast-interpolation grid     *                                                                              
# (https://zenodo.org/record/3992765#.X2EWy5MzbVo)                     *                                                                              
#***********************************************************************                                                                              
  False	= pineappl ! PineAPPL switch                                                                                                                  
#***********************************************************************
]]>
</MGRunCard>
<slha>
######################################################################                                                                                
## PARAM_CARD AUTOMATICALY GENERATED BY MG5 FOLLOWING UFO MODEL   ####                                                                                
######################################################################                                                                                
##                                                                  ##                                                                                
##  Width set on Auto will be computed following the information    ##                                                                                
##        present in the decay.py files of the model.               ##                                                                                
##        See  arXiv:1402.1178 for more details.                    ##                                                                                
##                                                                  ##                                                                                
######################################################################                                                                                
                                                                                                                                                      
###################################                                                                                                                   
## INFORMATION FOR MASS                                                                                                                               
###################################                                                                                                                   
Block mass                                                                                                                                            
    5 4.700000e+00 # MB                                                                                                                               
    6 1.730000e+02 # MT                                                                                                                               
   15 1.777000e+00 # MTA                                                                                                                              
   23 9.118800e+01 # MZ                                                                                                                               
   25 1.250000e+02 # MH                                                                                                                               
## Dependent parameters, given by model restrictions.                                                                                                 
## Those values should be edited following the                                                                                                        
## analytical expression. MG5 ignores those values                                                                                                    
## but they are important for interfacing the output of MG5                                                                                           
## to external program such as Pythia.                                                                                                                
  1 0.000000e+00 # d : 0.0                                                                                                                            
  2 0.000000e+00 # u : 0.0                                                                                                                            
  3 0.000000e+00 # s : 0.0                                                                                                                            
  4 0.000000e+00 # c : 0.0                                                                                                                            
  11 0.000000e+00 # e- : 0.0                                                                                                                          
  12 0.000000e+00 # ve : 0.0                                                                                                                          
  13 0.000000e+00 # mu- : 0.0                                                                                                                         
  14 0.000000e+00 # vm : 0.0                                                                                                                          
  16 0.000000e+00 # vt : 0.0                                                                                                                          
  21 0.000000e+00 # g : 0.0                                                                                                                           
  22 0.000000e+00 # a : 0.0                                                                                                                           
  24 8.041900e+01 # w+ : cmath.sqrt(MZ__exp__2/2. + cmath.sqrt(MZ__exp__4/4. - (aEW*cmath.pi*MZ__exp__2)/(Gf*sqrt__2)))                               
                                                                                                                                                      
###################################                                                                                                                   
## INFORMATION FOR SMINPUTS                                                                                                                           
###################################                                                                                                                   
Block sminputs                                                                                                                                        
    1 1.325070e+02 # aEWM1                                                                                                                            
    2 1.166390e-05 # Gf                                                                                                                               
    3 1.180000e-01 # aS (Note that Parameter not used if you use a PDF set)                                                                           
                                                                                                                                                      
###################################                                                                                                                   
## INFORMATION FOR YUKAWA                                                                                                                             
###################################                                                                                                                   
Block yukawa                                                                                                                                          
    5 4.700000e+00 # ymb                                                                                                                              
    6 1.730000e+02 # ymt                                                                                                                              
   15 1.777000e+00 # ymtau                                                                                                                            
                                                                                                                                                      
###################################                                                                                                                   
## INFORMATION FOR DECAY                                                                                                                              
###################################                                                                                                                   
Block QNUMBERS 82  # gh                                                                                                                               
        1 0  # 3 times electric charge                                                                                                                
        2 1  # number of spin states (2S+1)                                                                                                           
        3 8  # colour rep (1: singlet, 3: triplet, 8: octet)                                                                                          
        4 1  # Particle/Antiparticle distinction (0=own anti)                                                                                         
#
#*************************
#      Decay widths      *
#*************************
#
#      PDG        Width
DECAY  1   0.000000e+00
#
#      PDG        Width
DECAY  2   0.000000e+00
#
#      PDG        Width
DECAY  3   0.000000e+00
#
#      PDG        Width
DECAY  4   0.000000e+00
#
#      PDG        Width
DECAY  5   0.000000e+00
#
#      PDG        Width
DECAY  6   1.491500e+00
#  BR             NDA  ID1    ID2   ...
   1.000000e+00   2    5  24 # 1.4915
#
#      PDG        Width
DECAY  11   0.000000e+00
#
#      PDG        Width
DECAY  12   0.000000e+00
#
#      PDG        Width
DECAY  13   0.000000e+00
#
#      PDG        Width
DECAY  14   0.000000e+00
#
#      PDG        Width
DECAY  15   0.000000e+00
#
#      PDG        Width
DECAY  16   0.000000e+00
#
#      PDG        Width
DECAY  21   0.000000e+00
#
#      PDG        Width
DECAY  22   0.000000e+00
#
#      PDG        Width
DECAY  23   2.441756e+00
#  BR             NDA  ID1    ID2   ...
   1.523658e-01   2    -1  1 # 0.37204010634479995
   1.523658e-01   2    -3  3 # 0.37204010634479995
   1.507440e-01   2    -5  5 # 0.36808006646399993
   1.188141e-01   2    -2  2 # 0.2901150415596
   1.188141e-01   2    -4  4 # 0.2901150415596
   6.793744e-02   2    -12  12 # 0.1658866761622
   6.793744e-02   2    -14  14 # 0.1658866761622
   6.793744e-02   2    -16  16 # 0.1658866761622
   3.438713e-02   2    -11  11 # 0.08396500541783998
   3.438713e-02   2    -13  13 # 0.08396500541783998
   3.430972e-02   2    -15  15 # 0.08377598908587996
#
#      PDG        Width
DECAY  24   2.047930e+00
#  BR             NDA  ID1    ID2   ...
   3.333610e-01   2    -1  2 # 0.68269999273
   3.333610e-01   2    -3  4 # 0.68269999273
   1.111195e-01   2    -11  12 # 0.22756495763499998
   1.111195e-01   2    -13  14 # 0.22756495763499998
   1.110390e-01   2    -15  16 # 0.22740009927
#
#      PDG        Width
DECAY  25   6.382339e-03
</slha>
<initrwgt>
<weightgroup name='scale_variation               0  -1' combine='envelope'>
      <weight id='1001'> tag=              0 dyn=  -1 muR=0.10000E+01 muF=0.10000E+01 </weight>
      <weight id='1002'> tag=              0 dyn=  -1 muR=0.20000E+01 muF=0.10000E+01 </weight>
      <weight id='1003'> tag=              0 dyn=  -1 muR=0.50000E+00 muF=0.10000E+01 </weight>
      <weight id='1004'> tag=              0 dyn=  -1 muR=0.10000E+01 muF=0.20000E+01 </weight>
      <weight id='1005'> tag=              0 dyn=  -1 muR=0.20000E+01 muF=0.20000E+01 </weight>
      <weight id='1006'> tag=              0 dyn=  -1 muR=0.50000E+00 muF=0.20000E+01 </weight>
      <weight id='1007'> tag=              0 dyn=  -1 muR=0.10000E+01 muF=0.50000E+00 </weight>
      <weight id='1008'> tag=              0 dyn=  -1 muR=0.20000E+01 muF=0.50000E+00 </weight>
      <weight id='1009'> tag=              0 dyn=  -1 muR=0.50000E+00 muF=0.50000E+00 </weight>
    </weightgroup>
    <weightgroup name='scale_variation             400  -1' combine='envelope'>
      <weight id='1010'> tag=            400 dyn=  -1 muR=0.10000E+01 muF=0.10000E+01 </weight>
      <weight id='1011'> tag=            400 dyn=  -1 muR=0.20000E+01 muF=0.10000E+01 </weight>
      <weight id='1012'> tag=            400 dyn=  -1 muR=0.50000E+00 muF=0.10000E+01 </weight>
      <weight id='1013'> tag=            400 dyn=  -1 muR=0.10000E+01 muF=0.20000E+01 </weight>
      <weight id='1014'> tag=            400 dyn=  -1 muR=0.20000E+01 muF=0.20000E+01 </weight>
      <weight id='1015'> tag=            400 dyn=  -1 muR=0.50000E+00 muF=0.20000E+01 </weight>
      <weight id='1016'> tag=            400 dyn=  -1 muR=0.10000E+01 muF=0.50000E+00 </weight>
      <weight id='1017'> tag=            400 dyn=  -1 muR=0.20000E+01 muF=0.50000E+00 </weight>
      <weight id='1018'> tag=            400 dyn=  -1 muR=0.50000E+00 muF=0.50000E+00 </weight>
    </weightgroup>
    <weightgroup name='scale_variation             402  -1' combine='envelope'>
      <weight id='1019'> tag=            402 dyn=  -1 muR=0.10000E+01 muF=0.10000E+01 </weight>
      <weight id='1020'> tag=            402 dyn=  -1 muR=0.20000E+01 muF=0.10000E+01 </weight>
      <weight id='1021'> tag=            402 dyn=  -1 muR=0.50000E+00 muF=0.10000E+01 </weight>
      <weight id='1022'> tag=            402 dyn=  -1 muR=0.10000E+01 muF=0.20000E+01 </weight>
      <weight id='1023'> tag=            402 dyn=  -1 muR=0.20000E+01 muF=0.20000E+01 </weight>
      <weight id='1024'> tag=            402 dyn=  -1 muR=0.50000E+00 muF=0.20000E+01 </weight>
      <weight id='1025'> tag=            402 dyn=  -1 muR=0.10000E+01 muF=0.50000E+00 </weight>
      <weight id='1026'> tag=            402 dyn=  -1 muR=0.20000E+01 muF=0.50000E+00 </weight>
      <weight id='1027'> tag=            402 dyn=  -1 muR=0.50000E+00 muF=0.50000E+00 </weight>
    </weightgroup>
</initrwgt>
<scalesfunctionalform>
muR  H_T/2 := sum_i mT(i)/2, i=final state
    muF1 H_T/2 := sum_i mT(i)/2, i=final state
    muF2 H_T/2 := sum_i mT(i)/2, i=final state
    QES  H_T/2 := sum_i mT(i)/2, i=final state
</scalesfunctionalform>
<montecarlomasses>
1   0.320000E+00
       2   0.320000E+00
       3   0.500000E+00
       4   0.155000E+01
       5   0.495000E+01
      11   0.510999E-03
      13   0.105658E+00
      15   0.177682E+01
      21   0.750000E+00
</montecarlomasses>
<madspin>
set seed 321663173
set max_weight_ps_point 400  
decay t > w+ b, w+ > all all
decay t~ > w- b~, w- > all all
decay w+ > l+ vl
decay w- > l- vl~
decay z > all all
launch
</madspin>
</header>
<init>
2212   2212 0.65000000E+04 0.65000000E+04 -1 -1   244800   244800 -4   1
 5.030327394657E+00 1.783511353792E-02 5.711964631212E+00 0
</init>
<event>
  8      0 +5.7119646e+00 1.36393270e+02 7.54677110e-03 1.06821490e-01
       -2 -1    0    0    0  501 +0.00000000000e+00 +0.00000000000e+00 +1.75865355409e+02  1.75865646540e+02  3.20000000000e-01 0.0000e+00 1.0000e+00
        2 -1    0    0  501    0 +0.00000000000e+00 +0.00000000000e+00 -2.78275245412e+03  2.78275247252e+03  3.20000000000e-01 0.0000e+00 -1.0000e+00
       24  2    1    2    0    0 -7.52961876702e+01 +8.02741983412e+01 -2.75096646534e+03  2.75433284446e+03  8.01215442077e+01 0.0000e+00 0.0000e+00
      -11  1    3    3    0    0 -7.62238854401e+01 +3.27599445304e+01 -1.33974449367e+03  1.34231091890e+03  5.10999000000e-04 0.0000e+00 1.0000e+00
       12  1    3    3    0    0 +9.27697769951e-01 +4.75142538108e+01 -1.41122197166e+03  1.41202192555e+03  0.00000000000e+00 0.0000e+00 -1.0000e+00
      -24  2    1    2    0    0 +7.52961876702e+01 -8.02741983412e+01 +1.44079366627e+02  2.04285274601e+02  9.41283524461e+01 0.0000e+00 0.0000e+00
       13  1    6    6    0    0 -1.27399141149e+01 -4.34257032413e+01 +2.50712580760e+01  5.17366046313e+01  1.05658000000e-01 0.0000e+00 -1.0000e+00
      -14  1    6    6    0    0 +8.80361017851e+01 -3.68484950999e+01 +1.19008108551e+02  1.52548669970e+02  0.00000000000e+00 0.0000e+00 1.0000e+00
#aMCatNLO 1  0  0  2  1 0.10081590E+03 0.00000000E+00  9  5  0 0.00000000E+00 0.00000000E+00 0.00000000E+00 0.00000000E+00 0.00000000E+00
  <rwgt>
   <wgt id='1001'>  +5.7114796e+00 </wgt>
   <wgt id='1002'>  +5.6285041e+00 </wgt>
   <wgt id='1003'>  +5.8142112e+00 </wgt>
   <wgt id='1004'>  +5.2170840e+00 </wgt>
   <wgt id='1005'>  +5.1434926e+00 </wgt>
   <wgt id='1006'>  +5.3079619e+00 </wgt>
   <wgt id='1007'>  +6.2755154e+00 </wgt>
   <wgt id='1008'>  +6.1811802e+00 </wgt>
   <wgt id='1009'>  +6.3925701e+00 </wgt>
   <wgt id='1010'>  +4.7828950e+00 </wgt>
   <wgt id='1011'>  +4.7828950e+00 </wgt>
   <wgt id='1012'>  +4.7828950e+00 </wgt>
   <wgt id='1013'>  +4.3962193e+00 </wgt>
   <wgt id='1014'>  +4.3962193e+00 </wgt>
   <wgt id='1015'>  +4.3962193e+00 </wgt>
   <wgt id='1016'>  +5.2225169e+00 </wgt>
   <wgt id='1017'>  +5.2225169e+00 </wgt>
   <wgt id='1018'>  +5.2225169e+00 </wgt>
   <wgt id='1019'>  +9.2907855e-01 </wgt>
   <wgt id='1020'>  +8.4546098e-01 </wgt>
   <wgt id='1021'>  +1.0315138e+00 </wgt>
   <wgt id='1022'>  +8.2101285e-01 </wgt>
   <wgt id='1023'>  +7.4712515e-01 </wgt>
   <wgt id='1024'>  +9.1154504e-01 </wgt>
   <wgt id='1025'>  +1.0535912e+00 </wgt>
   <wgt id='1026'>  +9.5876204e-01 </wgt>
   <wgt id='1027'>  +1.1698063e+00 </wgt>
</rwgt>
</event> 
<event>
  9      0 +5.7119646e+00 1.00443790e+02 7.54677110e-03 1.15203100e-01
       21 -1    0    0  502  501 +0.00000000000e+00 +0.00000000000e+00 +3.49142995403e+01  3.49223540499e+01  7.50000000000e-01 0.0000e+00 1.0000e+00
        2 -1    0    0  501    0 +0.00000000000e+00 +0.00000000000e+00 -6.13992170314e+02  6.13992253702e+02  3.20000000000e-01 0.0000e+00 -1.0000e+00
       24  2    1    2    0    0 +1.45663541255e+00 +7.21150247356e+01 -4.56657789573e+02  4.69367693107e+02  8.10370037432e+01 0.0000e+00 0.0000e+00
      -13  1    3    3    0    0 -3.56302993603e+01 +1.16122805406e+01 -1.64535952376e+02  1.68749678755e+02  1.05658000000e-01 0.0000e+00 1.0000e+00
       14  1    3    3    0    0 +3.70869347728e+01 +6.05027441950e+01 -2.92121837197e+02  3.00618014352e+02  0.00000000000e+00 0.0000e+00 -1.0000e+00
      -24  2    1    2    0    0 +6.88671967476e+00 -4.93147133583e+01 -1.23972745054e+02  1.55216297349e+02  7.90157552958e+01 0.0000e+00 0.0000e+00
       13  1    6    6    0    0 +3.51441661030e+01 -9.86031558107e+00 -8.65539397002e+01  9.39357965617e+01  1.05658000000e-01 0.0000e+00 -1.0000e+00
      -14  1    6    6    0    0 -2.82574464282e+01 -3.94543977772e+01 -3.74188053534e+01  6.12805007868e+01  0.00000000000e+00 0.0000e+00 1.0000e+00
        2  1    1    2  502    0 -8.34335508731e+00 -2.28003113773e+01 +1.55266385281e+00  2.43306172970e+01  3.20000000000e-01 0.0000e+00 -1.0000e+00
#aMCatNLO 2  0  0  1  2 0.24278916E+02 0.00000000E+00  9  5  0 0.00000000E+00 0.00000000E+00 0.00000000E+00 0.00000000E+00 0.00000000E+00
  <rwgt>
   <wgt id='1001'>  +5.7114796e+00 </wgt>
   <wgt id='1002'>  +5.1844865e+00 </wgt>
   <wgt id='1003'>  +6.3624421e+00 </wgt>
   <wgt id='1004'>  +5.8398941e+00 </wgt>
   <wgt id='1005'>  +5.3005534e+00 </wgt>
   <wgt id='1006'>  +6.5046858e+00 </wgt>
   <wgt id='1007'>  +5.4803336e+00 </wgt>
   <wgt id='1008'>  +4.9740843e+00 </wgt>
   <wgt id='1009'>  +6.1041315e+00 </wgt>
   <wgt id='1010'>  +0.0000000e+00 </wgt>
   <wgt id='1011'>  +0.0000000e+00 </wgt>
   <wgt id='1012'>  +0.0000000e+00 </wgt>
   <wgt id='1013'>  +0.0000000e+00 </wgt>
   <wgt id='1014'>  +0.0000000e+00 </wgt>
   <wgt id='1015'>  +0.0000000e+00 </wgt>
   <wgt id='1016'>  +0.0000000e+00 </wgt>
   <wgt id='1017'>  +0.0000000e+00 </wgt>
   <wgt id='1018'>  +0.0000000e+00 </wgt>
   <wgt id='1019'>  +5.7114796e+00 </wgt>
   <wgt id='1020'>  +5.1844865e+00 </wgt>
   <wgt id='1021'>  +6.3624421e+00 </wgt>
   <wgt id='1022'>  +5.8398941e+00 </wgt>
   <wgt id='1023'>  +5.3005534e+00 </wgt>
   <wgt id='1024'>  +6.5046858e+00 </wgt>
   <wgt id='1025'>  +5.4803336e+00 </wgt>
   <wgt id='1026'>  +4.9740843e+00 </wgt>
   <wgt id='1027'>  +6.1041315e+00 </wgt>
</rwgt>
</event> 
<event>
  8      0 +5.7119646e+00 5.17653470e+01 7.54677110e-03 1.17580450e-01
        2 -1    0    0  501    0 +0.00000000000e+00 +0.00000000000e+00 +2.95297784906e+03  2.95297786640e+03  3.20000000000e-01 0.0000e+00 -1.0000e+00
       -2 -1    0    0    0  501 +0.00000000000e+00 +0.00000000000e+00 -3.02837344034e+00  3.04523327417e+00  3.20000000000e-01 0.0000e+00 1.0000e+00
       24  2    1    2    0    0 -8.81343434303e+00 -4.79397021124e+01 +1.38095391746e+03  1.38420953176e+03  8.14027885671e+01 0.0000e+00 0.0000e+00
      -11  1    3    3    0    0 +3.38683315533e+01 -8.57425186513e+00 +3.92548208852e+02  3.94099832467e+02  5.10999000000e-04 0.0000e+00 1.0000e+00
       12  1    3    3    0    0 -4.26817658963e+01 -3.93654502472e+01 +9.88405708610e+02  9.90109699289e+02  0.00000000000e+00 0.0000e+00 -1.0000e+00
      -24  2    1    2    0    0 +8.81343434303e+00 +4.79397021124e+01 +1.56899555816e+03  1.57181356792e+03  8.04670063148e+01 0.0000e+00 0.0000e+00
       11  1    6    6    0    0 -5.32891650752e+00 -2.17506033541e+01 +4.54907143203e+02  4.55458005786e+02  5.10999000000e-04 0.0000e+00 -1.0000e+00
      -12  1    6    6    0    0 +1.41423508506e+01 +6.96903054665e+01 +1.11408841496e+03  1.11635556213e+03  0.00000000000e+00 0.0000e+00 1.0000e+00
#aMCatNLO 1  0  0  2  1 0.82457591E+01 0.00000000E+00  9  5  0 0.00000000E+00 0.00000000E+00 0.00000000E+00 0.00000000E+00 0.00000000E+00
  <rwgt>
   <wgt id='1001'>  +5.7119735e+00 </wgt>
   <wgt id='1002'>  +6.2132838e+00 </wgt>
   <wgt id='1003'>  +5.0684196e+00 </wgt>
   <wgt id='1004'>  +1.7884182e+00 </wgt>
   <wgt id='1005'>  +2.6737864e+00 </wgt>
   <wgt id='1006'>  +6.6815026e-01 </wgt>
   <wgt id='1007'>  +9.5456388e+00 </wgt>
   <wgt id='1008'>  +9.6607179e+00 </wgt>
   <wgt id='1009'>  +9.3816634e+00 </wgt>
   <wgt id='1010'>  +1.0244016e+01 </wgt>
   <wgt id='1011'>  +1.0244016e+01 </wgt>
   <wgt id='1012'>  +1.0244016e+01 </wgt>
   <wgt id='1013'>  +1.0368479e+01 </wgt>
   <wgt id='1014'>  +1.0368479e+01 </wgt>
   <wgt id='1015'>  +1.0368479e+01 </wgt>
   <wgt id='1016'>  +1.0018303e+01 </wgt>
   <wgt id='1017'>  +1.0018303e+01 </wgt>
   <wgt id='1018'>  +1.0018303e+01 </wgt>
   <wgt id='1019'>  -4.5322398e+00 </wgt>
   <wgt id='1020'>  -4.0309296e+00 </wgt>
   <wgt id='1021'>  -5.1755962e+00 </wgt>
   <wgt id='1022'>  -8.5795670e+00 </wgt>
   <wgt id='1023'>  -7.6944951e+00 </wgt>
   <wgt id='1024'>  -9.7002300e+00 </wgt>
   <wgt id='1025'>  -4.7256024e-01 </wgt>
   <wgt id='1026'>  -3.5746632e-01 </wgt>
   <wgt id='1027'>  -6.3658994e-01 </wgt>
</rwgt>
</event> 
<event>
  8      0 +5.7119646e+00 9.51904420e+01 7.54677110e-03 1.15191160e-01
        1 -1    0    0  501    0 +0.00000000000e+00 +0.00000000000e+00 +3.73025462154e+02  3.73025599410e+02  3.20000000000e-01 0.0000e+00 -1.0000e+00
       -1 -1    0    0    0  501 +0.00000000000e+00 +0.00000000000e+00 -4.35711541555e+02  4.35711659064e+02  3.20000000000e-01 0.0000e+00 1.0000e+00
       24  2    1    2    0    0 +1.55065598336e+01 -4.86620517061e+01 -4.24954371311e+02  4.35238403731e+02  7.89797550735e+01 0.0000e+00 0.0000e+00
      -11  1    3    3    0    0 +8.50210358317e+00 -9.42601108813e+00 -3.50986192081e+02  3.51215663777e+02  5.10999000000e-04 0.0000e+00 1.0000e+00
       12  1    3    3    0    0 +7.00445625039e+00 -3.92360406180e+01 -7.39681792300e+01  8.40227399538e+01  0.00000000000e+00 0.0000e+00 -1.0000e+00
      -24  2    1    2    0    0 -1.55065598336e+01 +4.86620517061e+01 +3.62268291910e+02  3.73498854743e+02  7.51972771919e+01 0.0000e+00 0.0000e+00
       11  1    6    6    0    0 +1.01406988635e+01 +6.11547126734e+01 +2.31593564593e+02  2.39746348913e+02  5.10999000000e-04 0.0000e+00 -1.0000e+00
      -12  1    6    6    0    0 -2.56472586971e+01 -1.24926609673e+01 +1.30674727316e+02  1.33752505830e+02  0.00000000000e+00 0.0000e+00 1.0000e+00
#aMCatNLO 1  0  0  2  1 0.33434454E+02 0.00000000E+00  9  5  0 0.00000000E+00 0.00000000E+00 0.00000000E+00 0.00000000E+00 0.00000000E+00
  <rwgt>
   <wgt id='1001'>  +5.7119735e+00 </wgt>
   <wgt id='1002'>  +5.6492480e+00 </wgt>
   <wgt id='1003'>  +5.7900100e+00 </wgt>
   <wgt id='1004'>  +5.5149067e+00 </wgt>
   <wgt id='1005'>  +5.4576141e+00 </wgt>
   <wgt id='1006'>  +5.5865225e+00 </wgt>
   <wgt id='1007'>  +5.8981745e+00 </wgt>
   <wgt id='1008'>  +5.8300160e+00 </wgt>
   <wgt id='1009'>  +5.9831256e+00 </wgt>
   <wgt id='1010'>  +5.0481696e+00 </wgt>
   <wgt id='1011'>  +5.0481696e+00 </wgt>
   <wgt id='1012'>  +5.0481696e+00 </wgt>
   <wgt id='1013'>  +4.9082966e+00 </wgt>
   <wgt id='1014'>  +4.9082966e+00 </wgt>
   <wgt id='1015'>  +4.9082966e+00 </wgt>
   <wgt id='1016'>  +5.1765840e+00 </wgt>
   <wgt id='1017'>  +5.1765840e+00 </wgt>
   <wgt id='1018'>  +5.1765840e+00 </wgt>
   <wgt id='1019'>  +6.6375454e-01 </wgt>
   <wgt id='1020'>  +6.0097963e-01 </wgt>
   <wgt id='1021'>  +7.4164284e-01 </wgt>
   <wgt id='1022'>  +6.0656072e-01 </wgt>
   <wgt id='1023'>  +5.4916933e-01 </wgt>
   <wgt id='1024'>  +6.7773196e-01 </wgt>
   <wgt id='1025'>  +7.2159043e-01 </wgt>
   <wgt id='1026'>  +6.5333321e-01 </wgt>
   <wgt id='1027'>  +8.0629458e-01 </wgt>
</rwgt>
</event> 
<event>
  8      0 +5.7119646e+00 3.25786660e+01 7.54677110e-03 1.16806340e-01
        1 -1    0    0  501    0 +0.00000000000e+00 +0.00000000000e+00 +1.75532557085e+03  1.75532560002e+03  3.20000000000e-01 0.0000e+00 -1.0000e+00
       -1 -1    0    0    0  501 +0.00000000000e+00 +0.00000000000e+00 -2.68870800768e+01  2.68889842697e+01  3.20000000000e-01 0.0000e+00 1.0000e+00
       24  2    1    2    0    0 -2.67921507321e+01 +7.23601397307e+00 +4.32602061571e+01  9.50878364878e+01  8.00004498244e+01 0.0000e+00 0.0000e+00
      -13  1    3    3    0    0 -9.32091161650e-01 -3.09028011306e+01 -1.35768924693e+00  3.09468317499e+01  1.05658000000e-01 0.0000e+00 1.0000e+00
       14  1    3    3    0    0 -2.58600595705e+01 +3.81388151037e+01 +4.46178954040e+01  6.41410047379e+01  0.00000000000e+00 0.0000e+00 -1.0000e+00
      -24  2    1    2    0    0 +2.67921507321e+01 -7.23601397307e+00 +1.68517828462e+03  1.68712674780e+03  7.61618865461e+01 0.0000e+00 0.0000e+00
       11  1    6    6    0    0 -1.41861021528e+01 +2.50661411794e+01 +5.64062777736e+02  5.64797640005e+02  5.10999000000e-04 0.0000e+00 -1.0000e+00
      -12  1    6    6    0    0 +4.09782528849e+01 -3.23021551525e+01 +1.12111550688e+03  1.12232910780e+03  0.00000000000e+00 0.0000e+00 1.0000e+00
#aMCatNLO 1  0  0  2  1 0.33311291E+02 0.00000000E+00  9  5  0 0.00000000E+00 0.00000000E+00 0.00000000E+00 0.00000000E+00 0.00000000E+00
  <rwgt>
   <wgt id='1001'>  +5.7119735e+00 </wgt>
   <wgt id='1002'>  +5.5677542e+00 </wgt>
   <wgt id='1003'>  +5.8868147e+00 </wgt>
   <wgt id='1004'>  +4.8451266e+00 </wgt>
   <wgt id='1005'>  +4.7816108e+00 </wgt>
   <wgt id='1006'>  +4.9188167e+00 </wgt>
   <wgt id='1007'>  +6.6533502e+00 </wgt>
   <wgt id='1008'>  +6.4177591e+00 </wgt>
   <wgt id='1009'>  +6.9412949e+00 </wgt>
   <wgt id='1010'>  +4.0378936e+00 </wgt>
   <wgt id='1011'>  +4.0378936e+00 </wgt>
   <wgt id='1012'>  +4.0378936e+00 </wgt>
   <wgt id='1013'>  +4.0154211e+00 </wgt>
   <wgt id='1014'>  +4.0154211e+00 </wgt>
   <wgt id='1015'>  +4.0154211e+00 </wgt>
   <wgt id='1016'>  +4.0296948e+00 </wgt>
   <wgt id='1017'>  +4.0296948e+00 </wgt>
   <wgt id='1018'>  +4.0296948e+00 </wgt>
   <wgt id='1019'>  +1.6740799e+00 </wgt>
   <wgt id='1020'>  +1.5296631e+00 </wgt>
   <wgt id='1021'>  +1.8488224e+00 </wgt>
   <wgt id='1022'>  +8.2960674e-01 </wgt>
   <wgt id='1023'>  +7.6623915e-01 </wgt>
   <wgt id='1024'>  +9.0354383e-01 </wgt>
   <wgt id='1025'>  +2.6236060e+00 </wgt>
   <wgt id='1026'>  +2.3879655e+00 </wgt>
   <wgt id='1027'>  +2.9119458e+00 </wgt>
</rwgt>
</event> 
<event>
  9      0 +5.7119646e+00 9.67080870e+01 7.54677110e-03 1.13159050e-01
       21 -1    0    0  502  501 +0.00000000000e+00 +0.00000000000e+00 +1.80792732518e+01  1.80948230529e+01  7.50000000000e-01 0.0000e+00 -1.0000e+00
        2 -1    0    0  501    0 +0.00000000000e+00 +0.00000000000e+00 -1.67966410128e+03  1.67966413176e+03  3.20000000000e-01 0.0000e+00 -1.0000e+00
       24  2    1    2    0    0 +1.36096709175e+01 +6.56252664180e+01 -1.04030376851e+03  1.04560503914e+03  8.10312801974e+01 0.0000e+00 0.0000e+00
      -13  1    3    3    0    0 -4.16933494569e+00 +2.53005364219e+01 -7.43696603732e+01  7.86661175143e+01  1.05658000000e-01 0.0000e+00 1.0000e+00
       14  1    3    3    0    0 +1.77790058632e+01 +4.03247299960e+01 -9.65934108136e+02  9.66938921628e+02  0.00000000000e+00 0.0000e+00 -1.0000e+00
      -24  2    1    2    0    0 +3.38879167982e+01 -3.77774327799e+01 -5.65906318515e+02  5.74064306772e+02  8.20020831540e+01 0.0000e+00 0.0000e+00
       11  1    6    6    0    0 -1.50675743333e+01 +1.63421057215e+01 -9.70783486137e+01  9.95906721813e+01  5.10999000000e-04 0.0000e+00 -1.0000e+00
      -12  1    6    6    0    0 +4.89554911315e+01 -5.41195385014e+01 -4.68827969901e+02  4.74473634590e+02  0.00000000000e+00 0.0000e+00 1.0000e+00
        2  1    1    2  502    0 -4.74975877157e+01 -2.78478336380e+01 -5.53747410051e+01  7.80896089024e+01  3.20000000000e-01 0.0000e+00 -1.0000e+00
#aMCatNLO 2  0  0  1  2 0.55059265E+02 0.00000000E+00  9  5  0 0.00000000E+00 0.00000000E+00 0.00000000E+00 0.00000000E+00 0.00000000E+00
  <rwgt>
   <wgt id='1001'>  +5.7114796e+00 </wgt>
   <wgt id='1002'>  +5.1933767e+00 </wgt>
   <wgt id='1003'>  +6.3486129e+00 </wgt>
   <wgt id='1004'>  +5.7065406e+00 </wgt>
   <wgt id='1005'>  +5.1889316e+00 </wgt>
   <wgt id='1006'>  +6.3431799e+00 </wgt>
   <wgt id='1007'>  +5.6107237e+00 </wgt>
   <wgt id='1008'>  +5.1015110e+00 </wgt>
   <wgt id='1009'>  +6.2360033e+00 </wgt>
   <wgt id='1010'>  +0.0000000e+00 </wgt>
   <wgt id='1011'>  +0.0000000e+00 </wgt>
   <wgt id='1012'>  +0.0000000e+00 </wgt>
   <wgt id='1013'>  +0.0000000e+00 </wgt>
   <wgt id='1014'>  +0.0000000e+00 </wgt>
   <wgt id='1015'>  +0.0000000e+00 </wgt>
   <wgt id='1016'>  +0.0000000e+00 </wgt>
   <wgt id='1017'>  +0.0000000e+00 </wgt>
   <wgt id='1018'>  +0.0000000e+00 </wgt>
   <wgt id='1019'>  +5.7114796e+00 </wgt>
   <wgt id='1020'>  +5.1933767e+00 </wgt>
   <wgt id='1021'>  +6.3486129e+00 </wgt>
   <wgt id='1022'>  +5.7065406e+00 </wgt>
   <wgt id='1023'>  +5.1889316e+00 </wgt>
   <wgt id='1024'>  +6.3431799e+00 </wgt>
   <wgt id='1025'>  +5.6107237e+00 </wgt>
   <wgt id='1026'>  +5.1015110e+00 </wgt>
   <wgt id='1027'>  +6.2360033e+00 </wgt>
</rwgt>
</event> 
<event>
  8      0 +5.7119646e+00 8.30192570e+01 7.54677110e-03 9.99863900e-02
       -2 -1    0    0    0  501 +0.00000000000e+00 +0.00000000000e+00 +6.74273713840e+00  6.75032622305e+00  3.20000000000e-01 0.0000e+00 -1.0000e+00
        2 -1    0    0  501    0 +0.00000000000e+00 +0.00000000000e+00 -1.28894650138e+03  1.28894654110e+03  3.20000000000e-01 0.0000e+00 1.0000e+00
       24  2    1    2    0    0 -3.07192317870e+00 -1.76954223903e+01 -3.33574334384e+02  3.43318194696e+02  7.92021563090e+01 0.0000e+00 0.0000e+00
      -13  1    3    3    0    0 +9.67401214851e+00 +1.34060818795e+01 -1.31196684979e+01  2.11056013304e+01  1.05658000000e-01 0.0000e+00 1.0000e+00
       14  1    3    3    0    0 -1.27459353272e+01 -3.11015042699e+01 -3.20454665886e+02  3.22212593366e+02  0.00000000000e+00 0.0000e+00 -1.0000e+00
      -24  2    1    2    0    0 +3.07192317870e+00 +1.76954223903e+01 -9.48629429855e+02  9.52378672627e+02  8.24910674063e+01 0.0000e+00 0.0000e+00
       11  1    6    6    0    0 +6.83073052976e+00 -2.10060400988e+01 -8.33874973686e+01  8.62634761522e+01  5.10999000000e-04 0.0000e+00 -1.0000e+00
      -12  1    6    6    0    0 -3.75880735106e+00 +3.87014624891e+01 -8.65241932486e+02  8.66115196475e+02  0.00000000000e+00 0.0000e+00 1.0000e+00
#aMCatNLO 1  0  0  1  1 0.29826756E+03 0.00000000E+00  9  5  0 0.00000000E+00 0.00000000E+00 0.00000000E+00 0.00000000E+00 0.00000000E+00
  <rwgt>
   <wgt id='1001'>  +5.7114796e+00 </wgt>
   <wgt id='1002'>  +5.5845469e+00 </wgt>
   <wgt id='1003'>  +5.8700221e+00 </wgt>
   <wgt id='1004'>  +5.1691755e+00 </wgt>
   <wgt id='1005'>  +5.1192914e+00 </wgt>
   <wgt id='1006'>  +5.2314071e+00 </wgt>
   <wgt id='1007'>  +6.2705764e+00 </wgt>
   <wgt id='1008'>  +6.0601742e+00 </wgt>
   <wgt id='1009'>  +6.5338260e+00 </wgt>
   <wgt id='1010'>  +4.3940461e+00 </wgt>
   <wgt id='1011'>  +4.3940461e+00 </wgt>
   <wgt id='1012'>  +4.3940461e+00 </wgt>
   <wgt id='1013'>  +4.6525049e+00 </wgt>
   <wgt id='1014'>  +4.6525049e+00 </wgt>
   <wgt id='1015'>  +4.6525049e+00 </wgt>
   <wgt id='1016'>  +4.0830362e+00 </wgt>
   <wgt id='1017'>  +4.0830362e+00 </wgt>
   <wgt id='1018'>  +4.0830362e+00 </wgt>
   <wgt id='1019'>  +1.3178780e+00 </wgt>
   <wgt id='1020'>  +1.1906983e+00 </wgt>
   <wgt id='1021'>  +1.4763711e+00 </wgt>
   <wgt id='1022'>  +5.1662121e-01 </wgt>
   <wgt id='1023'>  +4.6676677e-01 </wgt>
   <wgt id='1024'>  +5.7875405e-01 </wgt>
   <wgt id='1025'>  +2.1878365e+00 </wgt>
   <wgt id='1026'>  +1.9766935e+00 </wgt>
   <wgt id='1027'>  +2.4509380e+00 </wgt>
</rwgt>
</event> 
<event>
  9      0 +5.7119646e+00 1.02064990e+02 7.54677110e-03 1.16552470e-01
       -1 -1    0    0    0  502 +0.00000000000e+00 +0.00000000000e+00 +9.94958092733e+01  9.94963238665e+01  3.20000000000e-01 0.0000e+00 1.0000e+00
        1 -1    0    0  501    0 +0.00000000000e+00 +0.00000000000e+00 -1.11899265984e+02  1.11899723538e+02  3.20000000000e-01 0.0000e+00 -1.0000e+00
       24  2    1    2    0    0 -5.19302139181e+01 -3.32754981842e+01 -8.66386891566e+00  1.00996611829e+02  7.95062706923e+01 0.0000e+00 0.0000e+00
      -11  1    3    3    0    0 -4.84330762084e+01 -2.99038701596e+01 -3.98182377394e+01  6.94657928658e+01  5.10999000000e-04 0.0000e+00 1.0000e+00
       12  1    3    3    0    0 -3.49713770966e+00 -3.37162802455e+00 +3.11543688237e+01  3.15308189634e+01  0.00000000000e+00 0.0000e+00 -1.0000e+00
      -24  2    1    2    0    0 +5.71097060229e+01 +3.35566656532e+01 +5.42008979790e-01  1.03631809362e+02  7.96974893344e+01 0.0000e+00 0.0000e+00
       11  1    6    6    0    0 +4.99039313213e+01 +1.58440098337e+01 +3.58653766698e+01  6.34646378140e+01  5.10999000000e-04 0.0000e+00 -1.0000e+00
      -12  1    6    6    0    0 +7.20577470161e+00 +1.77126558195e+01 -3.53233676901e+01  4.01671715484e+01  0.00000000000e+00 0.0000e+00 1.0000e+00
       21  1    1    2  501  502 -5.17949210482e+00 -2.81167469027e-01 -4.28159677517e+00  6.76762621269e+00  7.50000000000e-01 0.0000e+00 1.0000e+00
#aMCatNLO 2  0  0  1  2 0.51871180E+01 0.00000000E+00  9  5  0 0.00000000E+00 0.00000000E+00 0.00000000E+00 0.00000000E+00 0.00000000E+00
  <rwgt>
   <wgt id='1001'>  +5.7119735e+00 </wgt>
   <wgt id='1002'>  +5.1795475e+00 </wgt>
   <wgt id='1003'>  +6.3698506e+00 </wgt>
   <wgt id='1004'>  +6.0335035e+00 </wgt>
   <wgt id='1005'>  +5.4709495e+00 </wgt>
   <wgt id='1006'>  +6.7279294e+00 </wgt>
   <wgt id='1007'>  +5.3237668e+00 </wgt>
   <wgt id='1008'>  +4.8275437e+00 </wgt>
   <wgt id='1009'>  +5.9371927e+00 </wgt>
   <wgt id='1010'>  +0.0000000e+00 </wgt>
   <wgt id='1011'>  +0.0000000e+00 </wgt>
   <wgt id='1012'>  +0.0000000e+00 </wgt>
   <wgt id='1013'>  +0.0000000e+00 </wgt>
   <wgt id='1014'>  +0.0000000e+00 </wgt>
   <wgt id='1015'>  +0.0000000e+00 </wgt>
   <wgt id='1016'>  +0.0000000e+00 </wgt>
   <wgt id='1017'>  +0.0000000e+00 </wgt>
   <wgt id='1018'>  +0.0000000e+00 </wgt>
   <wgt id='1019'>  +5.7119735e+00 </wgt>
   <wgt id='1020'>  +5.1795475e+00 </wgt>
   <wgt id='1021'>  +6.3698506e+00 </wgt>
   <wgt id='1022'>  +6.0335035e+00 </wgt>
   <wgt id='1023'>  +5.4709495e+00 </wgt>
   <wgt id='1024'>  +6.7279294e+00 </wgt>
   <wgt id='1025'>  +5.3237668e+00 </wgt>
   <wgt id='1026'>  +4.8275437e+00 </wgt>
   <wgt id='1027'>  +5.9371927e+00 </wgt>
</rwgt>
</event> 
<event>
  8      0 +5.7119646e+00 1.34988970e+02 7.54677110e-03 9.66738590e-02
       -1 -1    0    0    0  501 +0.00000000000e+00 +0.00000000000e+00 +2.10140716857e+02  2.10140960503e+02  3.20000000000e-01 0.0000e+00 1.0000e+00
        1 -1    0    0  501    0 +0.00000000000e+00 +0.00000000000e+00 -1.98446248632e+02  1.98446506636e+02  3.20000000000e-01 0.0000e+00 -1.0000e+00
       24  2    1    2    0    0 -1.07242538445e+02 +1.31997868982e+01 +1.58348630623e+02  2.08148993445e+02  8.10957349412e+01 0.0000e+00 0.0000e+00
      -13  1    3    3    0    0 -1.07632493610e+02 -3.15015562589e+00 +9.79115125088e+01  1.45538148286e+02  1.05658000000e-01 0.0000e+00 1.0000e+00
       14  1    3    3    0    0 +3.89955164810e-01 +1.63499425241e+01 +6.04371181138e+01  6.26108451586e+01  0.00000000000e+00 0.0000e+00 -1.0000e+00
      -24  2    1    2    0    0 +1.07242538445e+02 -1.31997868982e+01 -1.46654162398e+02  2.00438473695e+02  8.36238121728e+01 0.0000e+00 0.0000e+00
       11  1    6    6    0    0 +1.86122730773e+01 +2.25255886568e+01 -7.65045287456e+01  8.18948214009e+01  5.10999000000e-04 0.0000e+00 -1.0000e+00
      -12  1    6    6    0    0 +8.86302653678e+01 -3.57253755550e+01 -7.01496336521e+01  1.18543652294e+02  0.00000000000e+00 0.0000e+00 1.0000e+00
#aMCatNLO 1  0  0  1  1 0.37818825E+03 0.00000000E+00  9  5  0 0.00000000E+00 0.00000000E+00 0.00000000E+00 0.00000000E+00 0.00000000E+00
  <rwgt>
   <wgt id='1001'>  +5.7119735e+00 </wgt>
   <wgt id='1002'>  +5.5865225e+00 </wgt>
   <wgt id='1003'>  +5.8655770e+00 </wgt>
   <wgt id='1004'>  +5.3642667e+00 </wgt>
   <wgt id='1005'>  +5.2758583e+00 </wgt>
   <wgt id='1006'>  +5.4734190e+00 </wgt>
   <wgt id='1007'>  +6.0754852e+00 </wgt>
   <wgt id='1008'>  +5.9080525e+00 </wgt>
   <wgt id='1009'>  +6.2799605e+00 </wgt>
   <wgt id='1010'>  +4.3185780e+00 </wgt>
   <wgt id='1011'>  +4.3185780e+00 </wgt>
   <wgt id='1012'>  +4.3185780e+00 </wgt>
   <wgt id='1013'>  +4.3775004e+00 </wgt>
   <wgt id='1014'>  +4.3775004e+00 </wgt>
   <wgt id='1015'>  +4.3775004e+00 </wgt>
   <wgt id='1016'>  +4.2248354e+00 </wgt>
   <wgt id='1017'>  +4.2248354e+00 </wgt>
   <wgt id='1018'>  +4.2248354e+00 </wgt>
   <wgt id='1019'>  +1.3933956e+00 </wgt>
   <wgt id='1020'>  +1.2677964e+00 </wgt>
   <wgt id='1021'>  +1.5473447e+00 </wgt>
   <wgt id='1022'>  +9.8721078e-01 </wgt>
   <wgt id='1023'>  +8.9820969e-01 </wgt>
   <wgt id='1024'>  +1.0962643e+00 </wgt>
   <wgt id='1025'>  +1.8503534e+00 </wgt>
   <wgt id='1026'>  +1.6835628e+00 </wgt>
   <wgt id='1027'>  +2.0547794e+00 </wgt>
</rwgt>
</event> 
<event>
  9      0 +5.7119646e+00 1.04064420e+02 7.54677110e-03 1.13106070e-01
       21 -1    0    0  501  502 +0.00000000000e+00 +0.00000000000e+00 +1.27450312508e+03  1.27450334576e+03  7.50000000000e-01 0.0000e+00 -1.0000e+00
       -3 -1    0    0    0  501 +0.00000000000e+00 +0.00000000000e+00 -2.07038417248e+01  2.07098783716e+01  5.00000000000e-01 0.0000e+00 1.0000e+00
       24  2    1    2    0    0 +5.00595731975e+01 -4.18685247668e+01 +3.76713793844e+02  3.90749769617e+02  8.07041866859e+01 0.0000e+00 0.0000e+00
      -11  1    3    3    0    0 +1.07157666298e+01 -4.22649855347e+01 +7.71964720215e+01  8.86591898764e+01  5.10999000000e-04 0.0000e+00 1.0000e+00
       12  1    3    3    0    0 +3.93438065677e+01 +3.96460767848e-01 +2.99517321822e+02  3.02090579741e+02  0.00000000000e+00 0.0000e+00 -1.0000e+00
      -24  2    1    2    0    0 -7.33177583396e+01 +4.36194536992e+00 +8.39264770503e+02  8.46339935513e+02  8.08171465837e+01 0.0000e+00 0.0000e+00
       11  1    6    6    0    0 -9.11737547782e+01 +4.38683317263e+00 +7.12851816969e+02  7.18672116352e+02  5.10999000000e-04 0.0000e+00 -1.0000e+00
      -12  1    6    6    0    0 +1.78559964386e+01 -2.48878027056e-02 +1.26412953534e+02  1.27667819161e+02  0.00000000000e+00 0.0000e+00 1.0000e+00
       -3  1    1    2    0  502 +2.32581851420e+01 +3.75065793969e+01 +3.78207190097e+01  5.81235189968e+01  5.00000000000e-01 0.0000e+00 1.0000e+00
#aMCatNLO 2  0  0  1  1 0.44211398E+02 0.00000000E+00  9  5  0 0.00000000E+00 0.00000000E+00 0.00000000E+00 0.00000000E+00 0.00000000E+00
  <rwgt>
   <wgt id='1001'>  +5.7119735e+00 </wgt>
   <wgt id='1002'>  +5.1933767e+00 </wgt>
   <wgt id='1003'>  +6.3481190e+00 </wgt>
   <wgt id='1004'>  +5.5287360e+00 </wgt>
   <wgt id='1005'>  +5.0274257e+00 </wgt>
   <wgt id='1006'>  +6.1451253e+00 </wgt>
   <wgt id='1007'>  +5.8349551e+00 </wgt>
   <wgt id='1008'>  +5.3054924e+00 </wgt>
   <wgt id='1009'>  +6.4849297e+00 </wgt>
   <wgt id='1010'>  +0.0000000e+00 </wgt>
   <wgt id='1011'>  +0.0000000e+00 </wgt>
   <wgt id='1012'>  +0.0000000e+00 </wgt>
   <wgt id='1013'>  +0.0000000e+00 </wgt>
   <wgt id='1014'>  +0.0000000e+00 </wgt>
   <wgt id='1015'>  +0.0000000e+00 </wgt>
   <wgt id='1016'>  +0.0000000e+00 </wgt>
   <wgt id='1017'>  +0.0000000e+00 </wgt>
   <wgt id='1018'>  +0.0000000e+00 </wgt>
   <wgt id='1019'>  +5.7119735e+00 </wgt>
   <wgt id='1020'>  +5.1933767e+00 </wgt>
   <wgt id='1021'>  +6.3481190e+00 </wgt>
   <wgt id='1022'>  +5.5287360e+00 </wgt>
   <wgt id='1023'>  +5.0274257e+00 </wgt>
   <wgt id='1024'>  +6.1451253e+00 </wgt>
   <wgt id='1025'>  +5.8349551e+00 </wgt>
   <wgt id='1026'>  +5.3054924e+00 </wgt>
   <wgt id='1027'>  +6.4849297e+00 </wgt>
</rwgt>
</event> 
<event>
  8      0 +5.7119646e+00 5.36518160e+01 7.54677110e-03 1.13643620e-01
        2 -1    0    0  501    0 +0.00000000000e+00 +0.00000000000e+00 +1.09027491455e+03  1.09027496151e+03  3.20000000000e-01 0.0000e+00 -1.0000e+00
       -2 -1    0    0    0  501 +0.00000000000e+00 +0.00000000000e+00 -9.30049094198e+00  9.30599439941e+00  3.20000000000e-01 0.0000e+00 1.0000e+00
       24  2    1    2    0    0 -2.76941398143e+01 -4.62216812422e+01 +6.52765702936e+02  6.60348722087e+02  8.39878719549e+01 0.0000e+00 0.0000e+00
      -13  1    3    3    0    0 -2.19767152504e+01 -3.74564544605e+01 +1.22331285434e+02  1.29811080241e+02  1.05658000000e-01 0.0000e+00 1.0000e+00
       14  1    3    3    0    0 -5.71742456395e+00 -8.76522678171e+00 +5.30434417503e+02  5.30537641846e+02  0.00000000000e+00 0.0000e+00 -1.0000e+00
      -24  2    1    2    0    0 +2.76941398143e+01 +4.62216812422e+01 +4.28208720671e+02  4.39232233822e+02  8.16017007952e+01 0.0000e+00 0.0000e+00
       13  1    6    6    0    0 +4.59813320703e+00 -1.83964000270e+00 +3.04260884421e+02  3.04301206137e+02  1.05658000000e-01 0.0000e+00 -1.0000e+00
      -14  1    6    6    0    0 +2.30960066073e+01 +4.80613212449e+01 +1.23947836250e+02  1.34931027685e+02  0.00000000000e+00 0.0000e+00 1.0000e+00
#aMCatNLO 1  0  0  2  1 0.46530955E+02 0.00000000E+00  9  5  0 0.00000000E+00 0.00000000E+00 0.00000000E+00 0.00000000E+00 0.00000000E+00
  <rwgt>
   <wgt id='1001'>  +5.7119735e+00 </wgt>
   <wgt id='1002'>  +5.6344309e+00 </wgt>
   <wgt id='1003'>  +5.8048270e+00 </wgt>
   <wgt id='1004'>  +5.6803638e+00 </wgt>
   <wgt id='1005'>  +5.6314675e+00 </wgt>
   <wgt id='1006'>  +5.7376564e+00 </wgt>
   <wgt id='1007'>  +5.7292601e+00 </wgt>
   <wgt id='1008'>  +5.6186261e+00 </wgt>
   <wgt id='1009'>  +5.8621196e+00 </wgt>
   <wgt id='1010'>  +4.7613609e+00 </wgt>
   <wgt id='1011'>  +4.7613609e+00 </wgt>
   <wgt id='1012'>  +4.7613609e+00 </wgt>
   <wgt id='1013'>  +5.0294013e+00 </wgt>
   <wgt id='1014'>  +5.0294013e+00 </wgt>
   <wgt id='1015'>  +5.0294013e+00 </wgt>
   <wgt id='1016'>  +4.4387936e+00 </wgt>
   <wgt id='1017'>  +4.4387936e+00 </wgt>
   <wgt id='1018'>  +4.4387936e+00 </wgt>
   <wgt id='1019'>  +9.5066205e-01 </wgt>
   <wgt id='1020'>  +8.7307009e-01 </wgt>
   <wgt id='1021'>  +1.0434168e+00 </wgt>
   <wgt id='1022'>  +6.5101187e-01 </wgt>
   <wgt id='1023'>  +6.0201682e-01 </wgt>
   <wgt id='1024'>  +7.0805752e-01 </wgt>
   <wgt id='1025'>  +1.2900713e+00 </wgt>
   <wgt id='1026'>  +1.1798818e+00 </wgt>
   <wgt id='1027'>  +1.4233260e+00 </wgt>
</rwgt>
</event> 
<event>
  9      0 +5.7119646e+00 9.93296140e+01 7.54677110e-03 1.08475160e-01
        1 -1    0    0  502    0 +0.00000000000e+00 +0.00000000000e+00 +1.30061567917e+02  1.30061961576e+02  3.20000000000e-01 0.0000e+00 -1.0000e+00
       -1 -1    0    0    0  501 +0.00000000000e+00 +0.00000000000e+00 -7.01983015135e+02  7.01983088072e+02  3.20000000000e-01 0.0000e+00 1.0000e+00
       24  2    1    2    0    0 -2.22076017712e+01 +1.55435659507e+00 -4.84875106024e+02  4.91772559294e+02  7.89986584215e+01 0.0000e+00 0.0000e+00
      -13  1    3    3    0    0 +1.46931601983e+01 +2.68467930121e+01 -3.00202305947e+02  3.01758305455e+02  1.05658000000e-01 0.0000e+00 1.0000e+00
       14  1    3    3    0    0 -3.69007619695e+01 -2.52924364170e+01 -1.84672800077e+02  1.90014253839e+02  0.00000000000e+00 0.0000e+00 -1.0000e+00
      -24  2    1    2    0    0 +3.18103150036e+01 +1.15918942176e+02 -1.48403870969e+02  2.07390975515e+02  8.08592017691e+01 0.0000e+00 0.0000e+00
       13  1    6    6    0    0 -1.54826561108e+01 +3.42805570773e+01 -8.36301800909e+00  3.85333682360e+01  1.05658000000e-01 0.0000e+00 -1.0000e+00
      -14  1    6    6    0    0 +4.72929711144e+01 +8.16383850990e+01 -1.40040852959e+02  1.68857607279e+02  0.00000000000e+00 0.0000e+00 1.0000e+00
       21  1    1    2  502  501 -9.60271323241e+00 -1.17473298771e+02 +6.13575297740e+01  1.32881514838e+02  7.50000000000e-01 0.0000e+00 -1.0000e+00
#aMCatNLO 2  0  0  1  1 0.11786513E+03 0.00000000E+00  9  5  0 0.00000000E+00 0.00000000E+00 0.00000000E+00 0.00000000E+00 0.00000000E+00
  <rwgt>
   <wgt id='1001'>  +5.7119735e+00 </wgt>
   <wgt id='1002'>  +5.2141206e+00 </wgt>
   <wgt id='1003'>  +6.3179909e+00 </wgt>
   <wgt id='1004'>  +5.5860286e+00 </wgt>
   <wgt id='1005'>  +5.0985476e+00 </wgt>
   <wgt id='1006'>  +6.1787107e+00 </wgt>
   <wgt id='1007'>  +5.8231014e+00 </wgt>
   <wgt id='1008'>  +5.3148765e+00 </wgt>
   <wgt id='1009'>  +6.4409725e+00 </wgt>
   <wgt id='1010'>  +0.0000000e+00 </wgt>
   <wgt id='1011'>  +0.0000000e+00 </wgt>
   <wgt id='1012'>  +0.0000000e+00 </wgt>
   <wgt id='1013'>  +0.0000000e+00 </wgt>
   <wgt id='1014'>  +0.0000000e+00 </wgt>
   <wgt id='1015'>  +0.0000000e+00 </wgt>
   <wgt id='1016'>  +0.0000000e+00 </wgt>
   <wgt id='1017'>  +0.0000000e+00 </wgt>
   <wgt id='1018'>  +0.0000000e+00 </wgt>
   <wgt id='1019'>  +5.7119735e+00 </wgt>
   <wgt id='1020'>  +5.2141206e+00 </wgt>
   <wgt id='1021'>  +6.3179909e+00 </wgt>
   <wgt id='1022'>  +5.5860286e+00 </wgt>
   <wgt id='1023'>  +5.0985476e+00 </wgt>
   <wgt id='1024'>  +6.1787107e+00 </wgt>
   <wgt id='1025'>  +5.8231014e+00 </wgt>
   <wgt id='1026'>  +5.3148765e+00 </wgt>
   <wgt id='1027'>  +6.4409725e+00 </wgt>
</rwgt>
</event> 
<event>
  8      0 +5.7119646e+00 1.05485880e+02 7.54677110e-03 1.14197660e-01
       -2 -1    0    0    0  501 +0.00000000000e+00 +0.00000000000e+00 +4.53423049953e+01  4.53434341695e+01  3.20000000000e-01 0.0000e+00 1.0000e+00
        2 -1    0    0  501    0 +0.00000000000e+00 +0.00000000000e+00 -2.45508147856e+02  2.45508356403e+02  3.20000000000e-01 0.0000e+00 -1.0000e+00
       24  2    1    2    0    0 -5.76443164885e+00 +6.78907515258e+01 -1.02802532843e+02  1.47065287402e+02  8.01090206191e+01 0.0000e+00 0.0000e+00
      -13  1    3    3    0    0 +1.22744755315e+01 +3.39481418736e+01 +1.26966546044e+00  3.61214936047e+01  1.05658000000e-01 0.0000e+00 1.0000e+00
       14  1    3    3    0    0 -1.80389071804e+01 +3.39426096522e+01 -1.04072198304e+02  1.10943793797e+02  0.00000000000e+00 0.0000e+00 -1.0000e+00
      -24  2    1    2    0    0 +5.76443164885e+00 -6.78907515258e+01 -9.73633100175e+01  1.43786503171e+02  8.09478939912e+01 0.0000e+00 0.0000e+00
       13  1    6    6    0    0 +3.61033398690e+01 -5.76617425290e+01 -8.63458420895e+01  1.09926990821e+02  1.05658000000e-01 0.0000e+00 -1.0000e+00
      -14  1    6    6    0    0 -3.03389082201e+01 -1.02290089968e+01 -1.10174679280e+01  3.38595123501e+01  0.00000000000e+00 0.0000e+00 1.0000e+00
#aMCatNLO 1  0  0  2  1 0.27720423E+02 0.00000000E+00  9  5  0 0.00000000E+00 0.00000000E+00 0.00000000E+00 0.00000000E+00 0.00000000E+00
  <rwgt>
   <wgt id='1001'>  +5.7119735e+00 </wgt>
   <wgt id='1002'>  +5.6828333e+00 </wgt>
   <wgt id='1003'>  +5.7480283e+00 </wgt>
   <wgt id='1004'>  +6.0399243e+00 </wgt>
   <wgt id='1005'>  +6.0132536e+00 </wgt>
   <wgt id='1006'>  +6.0730157e+00 </wgt>
   <wgt id='1007'>  +5.3114192e+00 </wgt>
   <wgt id='1008'>  +5.2812912e+00 </wgt>
   <wgt id='1009'>  +5.3494497e+00 </wgt>
   <wgt id='1010'>  +5.4003215e+00 </wgt>
   <wgt id='1011'>  +5.4003215e+00 </wgt>
   <wgt id='1012'>  +5.4003215e+00 </wgt>
   <wgt id='1013'>  +5.7529674e+00 </wgt>
   <wgt id='1014'>  +5.7529674e+00 </wgt>
   <wgt id='1015'>  +5.7529674e+00 </wgt>
   <wgt id='1016'>  +4.9849502e+00 </wgt>
   <wgt id='1017'>  +4.9849502e+00 </wgt>
   <wgt id='1018'>  +4.9849502e+00 </wgt>
   <wgt id='1019'>  +3.1169150e-01 </wgt>
   <wgt id='1020'>  +2.8261551e-01 </wgt>
   <wgt id='1021'>  +3.4760310e-01 </wgt>
   <wgt id='1022'>  +2.8723349e-01 </wgt>
   <wgt id='1023'>  +2.6044426e-01 </wgt>
   <wgt id='1024'>  +3.2032491e-01 </wgt>
   <wgt id='1025'>  +3.2654313e-01 </wgt>
   <wgt id='1026'>  +2.9609409e-01 </wgt>
   <wgt id='1027'>  +3.6417350e-01 </wgt>
</rwgt>
</event> 
<event>
  8      0 +5.7119646e+00 1.36852290e+02 7.54677110e-03 1.03840290e-01
       -2 -1    0    0    0  501 +0.00000000000e+00 +0.00000000000e+00 +8.86081677680e+00  8.86659314235e+00  3.20000000000e-01 0.0000e+00 1.0000e+00
        2 -1    0    0  501    0 +0.00000000000e+00 +0.00000000000e+00 -2.33296217080e+03  2.33296219275e+03  3.20000000000e-01 0.0000e+00 -1.0000e+00
       24  2    1    2    0    0 -8.81649685489e+01 +6.62767738407e+01 -1.51794396755e+03  1.52411675940e+03  8.13162666496e+01 0.0000e+00 0.0000e+00
      -11  1    3    3    0    0 -1.11373627267e+01 -1.37326334521e+01 -8.20206961940e+01  8.39048310555e+01  5.10999000000e-04 0.0000e+00 1.0000e+00
       12  1    3    3    0    0 -7.70276058222e+01 +8.00094072928e+01 -1.43592327136e+03  1.44021192834e+03  0.00000000000e+00 0.0000e+00 -1.0000e+00
      -24  2    1    2    0    0 +8.81649685489e+01 -6.62767738408e+01 -8.06157386473e+02  8.17712026492e+02  8.12253290222e+01 0.0000e+00 0.0000e+00
       13  1    6    6    0    0 +7.37104811506e+01 -1.47345763027e+01 -6.01135113773e+02  6.05816621549e+02  1.05658000000e-01 0.0000e+00 -1.0000e+00
      -14  1    6    6    0    0 +1.44544873983e+01 -5.15421975381e+01 -2.05022272700e+02  2.11895404944e+02  0.00000000000e+00 0.0000e+00 1.0000e+00
#aMCatNLO 1  0  0  2  2 0.16036393E+03 0.00000000E+00  9  5  0 0.00000000E+00 0.00000000E+00 0.00000000E+00 0.00000000E+00 0.00000000E+00
  <rwgt>
   <wgt id='1001'>  +5.7114796e+00 </wgt>
   <wgt id='1002'>  +5.6527053e+00 </wgt>
   <wgt id='1003'>  +5.7845771e+00 </wgt>
   <wgt id='1004'>  +5.7090101e+00 </wgt>
   <wgt id='1005'>  +5.6522114e+00 </wgt>
   <wgt id='1006'>  +5.7771685e+00 </wgt>
   <wgt id='1007'>  +5.6680163e+00 </wgt>
   <wgt id='1008'>  +5.6062786e+00 </wgt>
   <wgt id='1009'>  +5.7440771e+00 </wgt>
   <wgt id='1010'>  +5.0526147e+00 </wgt>
   <wgt id='1011'>  +5.0526147e+00 </wgt>
   <wgt id='1012'>  +5.0526147e+00 </wgt>
   <wgt id='1013'>  +5.0832366e+00 </wgt>
   <wgt id='1014'>  +5.0832366e+00 </wgt>
   <wgt id='1015'>  +5.0832366e+00 </wgt>
   <wgt id='1016'>  +4.9805051e+00 </wgt>
   <wgt id='1017'>  +4.9805051e+00 </wgt>
   <wgt id='1018'>  +4.9805051e+00 </wgt>
   <wgt id='1019'>  +6.5940820e-01 </wgt>
   <wgt id='1020'>  +6.0004121e-01 </wgt>
   <wgt id='1021'>  +7.3211054e-01 </wgt>
   <wgt id='1022'>  +6.2532898e-01 </wgt>
   <wgt id='1023'>  +5.6907357e-01 </wgt>
   <wgt id='1024'>  +6.9422827e-01 </wgt>
   <wgt id='1025'>  +6.8736304e-01 </wgt>
   <wgt id='1026'>  +6.2552654e-01 </wgt>
   <wgt id='1027'>  +7.6312756e-01 </wgt>
</rwgt>
</event> 
<event>
  8      0 +5.7119646e+00 9.64998110e+01 7.54677110e-03 1.10344380e-01
       -2 -1    0    0    0  501 +0.00000000000e+00 +0.00000000000e+00 +4.91871639666e+00  4.92911462545e+00  3.20000000000e-01 0.0000e+00 1.0000e+00
        2 -1    0    0  501    0 +0.00000000000e+00 +0.00000000000e+00 -1.89128102661e+03  1.89128105368e+03  3.20000000000e-01 0.0000e+00 -1.0000e+00
       24  2    1    2    0    0 -2.80292298770e+01 -4.13317022633e+01 -9.22348297645e+02  9.27289219990e+02  8.15166731509e+01 0.0000e+00 0.0000e+00
      -13  1    3    3    0    0 -4.41073797409e+01 -6.21045466867e+00 -7.14173409327e+02  7.15561108815e+02  1.05658000000e-01 0.0000e+00 1.0000e+00
       14  1    3    3    0    0 +1.60781498638e+01 -3.51212475946e+01 -2.08174888318e+02  2.11728111175e+02  0.00000000000e+00 0.0000e+00 -1.0000e+00
      -24  2    1    2    0    0 +2.80292298770e+01 +4.13317022633e+01 -9.64014012568e+02  9.68920948317e+02  8.36112451766e+01 0.0000e+00 0.0000e+00
       11  1    6    6    0    0 +3.08948362904e+01 -1.87884176704e+01 -4.32853136697e+02  4.34360833290e+02  5.10999000000e-04 0.0000e+00 -1.0000e+00
      -12  1    6    6    0    0 -2.86560641340e+00 +6.01201199337e+01 -5.31160875871e+02  5.34560115027e+02  0.00000000000e+00 0.0000e+00 1.0000e+00
#aMCatNLO 1  0  0  1  1 0.91914079E+02 0.00000000E+00  9  5  0 0.00000000E+00 0.00000000E+00 0.00000000E+00 0.00000000E+00 0.00000000E+00
  <rwgt>
   <wgt id='1001'>  +5.7114796e+00 </wgt>
   <wgt id='1002'>  +5.6497419e+00 </wgt>
   <wgt id='1003'>  +5.7895161e+00 </wgt>
   <wgt id='1004'>  +5.8942233e+00 </wgt>
   <wgt id='1005'>  +5.8334733e+00 </wgt>
   <wgt id='1006'>  +5.9692963e+00 </wgt>
   <wgt id='1007'>  +5.4620592e+00 </wgt>
   <wgt id='1008'>  +5.3988398e+00 </wgt>
   <wgt id='1009'>  +5.5396018e+00 </wgt>
   <wgt id='1010'>  +5.0516269e+00 </wgt>
   <wgt id='1011'>  +5.0516269e+00 </wgt>
   <wgt id='1012'>  +5.0516269e+00 </wgt>
   <wgt id='1013'>  +5.2491876e+00 </wgt>
   <wgt id='1014'>  +5.2491876e+00 </wgt>
   <wgt id='1015'>  +5.2491876e+00 </wgt>
   <wgt id='1016'>  +4.7969218e+00 </wgt>
   <wgt id='1017'>  +4.7969218e+00 </wgt>
   <wgt id='1018'>  +4.7969218e+00 </wgt>
   <wgt id='1019'>  +6.6029722e-01 </wgt>
   <wgt id='1020'>  +5.9796683e-01 </wgt>
   <wgt id='1021'>  +7.3759285e-01 </wgt>
   <wgt id='1022'>  +6.4473932e-01 </wgt>
   <wgt id='1023'>  +5.8384124e-01 </wgt>
   <wgt id='1024'>  +7.2020750e-01 </wgt>
   <wgt id='1025'>  +6.6489051e-01 </wgt>
   <wgt id='1026'>  +6.0206621e-01 </wgt>
   <wgt id='1027'>  +7.4268003e-01 </wgt>
</rwgt>
</event> 
<event>
  8      0 +5.7119646e+00 2.75919360e+01 7.54677110e-03 1.15520680e-01
        1 -1    0    0  501    0 +0.00000000000e+00 +0.00000000000e+00 +2.13775393790e+02  2.13775633294e+02  3.20000000000e-01 0.0000e+00 -1.0000e+00
       -1 -1    0    0    0  501 +0.00000000000e+00 +0.00000000000e+00 -6.52534391609e+01  6.52542237892e+01  3.20000000000e-01 0.0000e+00 1.0000e+00
       24  2    1    2    0    0 -6.60098159861e+01 +2.12695091546e+01 +2.00572499103e+01  1.10983057330e+02  8.42926919385e+01 0.0000e+00 0.0000e+00
      -13  1    3    3    0    0 -1.51352062789e+01 +3.63896529251e+00 -3.23158470307e+01  3.58697877109e+01  1.05658000000e-01 0.0000e+00 1.0000e+00
       14  1    3    3    0    0 -5.08746097071e+01 +1.76305438621e+01 +5.23730969410e+01  7.51132696194e+01  0.00000000000e+00 0.0000e+00 -1.0000e+00
      -24  2    1    2    0    0 +6.60098159861e+01 -2.12695091546e+01 +1.28464704719e+02  1.68046799753e+02  8.32277521167e+01 0.0000e+00 0.0000e+00
       11  1    6    6    0    0 +6.64713817419e+01 +1.73511546785e+01 +9.29115483914e+01  1.15551127143e+02  5.10999000000e-04 0.0000e+00 -1.0000e+00
      -12  1    6    6    0    0 -4.61565755783e-01 -3.86206638331e+01 +3.55531563278e+01  5.24956726095e+01  0.00000000000e+00 0.0000e+00 1.0000e+00
#aMCatNLO 1  0  0  1  2 0.67708943E+01 0.00000000E+00  9  5  0 0.00000000E+00 0.00000000E+00 0.00000000E+00 0.00000000E+00 0.00000000E+00
  <rwgt>
   <wgt id='1001'>  +5.7119735e+00 </wgt>
   <wgt id='1002'>  +5.7016016e+00 </wgt>
   <wgt id='1003'>  +5.6976504e+00 </wgt>
   <wgt id='1004'>  +6.7170635e+00 </wgt>
   <wgt id='1005'>  +6.6375454e+00 </wgt>
   <wgt id='1006'>  +6.7881854e+00 </wgt>
   <wgt id='1007'>  +4.8589065e+00 </wgt>
   <wgt id='1008'>  +4.8985668e+00 </wgt>
   <wgt id='1009'>  +4.7844261e+00 </wgt>
   <wgt id='1010'>  +4.6168452e+00 </wgt>
   <wgt id='1011'>  +4.6168452e+00 </wgt>
   <wgt id='1012'>  +4.6168452e+00 </wgt>
   <wgt id='1013'>  +4.8455711e+00 </wgt>
   <wgt id='1014'>  +4.8455711e+00 </wgt>
   <wgt id='1015'>  +4.8455711e+00 </wgt>
   <wgt id='1016'>  +4.3359633e+00 </wgt>
   <wgt id='1017'>  +4.3359633e+00 </wgt>
   <wgt id='1018'>  +4.3359633e+00 </wgt>
   <wgt id='1019'>  +1.0952271e+00 </wgt>
   <wgt id='1020'>  +1.0850033e+00 </wgt>
   <wgt id='1021'>  +1.0808545e+00 </wgt>
   <wgt id='1022'>  +1.8715912e+00 </wgt>
   <wgt id='1023'>  +1.7917767e+00 </wgt>
   <wgt id='1024'>  +1.9423673e+00 </wgt>
   <wgt id='1025'>  +5.2304193e-01 </wgt>
   <wgt id='1026'>  +5.6245529e-01 </wgt>
   <wgt id='1027'>  +4.4853192e-01 </wgt>
</rwgt>
</event> 
<event>
  8      0 +5.7119646e+00 2.99073010e+02 7.54677110e-03 9.87560030e-02
       -1 -1    0    0    0  501 +0.00000000000e+00 +0.00000000000e+00 +1.16180701505e+02  1.16181142197e+02  3.20000000000e-01 0.0000e+00 1.0000e+00
        1 -1    0    0  501    0 +0.00000000000e+00 +0.00000000000e+00 -1.17079388550e+03  1.17079392923e+03  3.20000000000e-01 0.0000e+00 -1.0000e+00
       24  2    1    2    0    0 -9.72307783910e+01 +2.71151493094e+02 -1.51244067084e+02  3.35519822082e+02  8.19867471499e+01 0.0000e+00 0.0000e+00
      -13  1    3    3    0    0 -1.09573208323e+02 +2.56789463145e+02 -1.48967648306e+02  3.16446658649e+02  1.05658000000e-01 0.0000e+00 1.0000e+00
       14  1    3    3    0    0 +1.23424299323e+01 +1.43620299492e+01 -2.27641877732e+00  1.90731634331e+01  0.00000000000e+00 0.0000e+00 -1.0000e+00
      -24  2    1    2    0    0 +9.72307783910e+01 -2.71151493094e+02 -9.03369116912e+02  9.51455249348e+02  7.88312986522e+01 0.0000e+00 0.0000e+00
       13  1    6    6    0    0 +9.21654374073e+01 -1.72645096403e+02 -6.72506526817e+02  7.00404052630e+02  1.05658000000e-01 0.0000e+00 -1.0000e+00
      -14  1    6    6    0    0 +5.06534098363e+00 -9.85063966910e+01 -2.30862590095e+02  2.51051196718e+02  0.00000000000e+00 0.0000e+00 1.0000e+00
#aMCatNLO 1  0  0  1  1 0.10099263E+03 0.00000000E+00  9  5  0 0.00000000E+00 0.00000000E+00 0.00000000E+00 0.00000000E+00 0.00000000E+00
  <rwgt>
   <wgt id='1001'>  +5.7119735e+00 </wgt>
   <wgt id='1002'>  +5.6561626e+00 </wgt>
   <wgt id='1003'>  +5.7791442e+00 </wgt>
   <wgt id='1004'>  +5.5213275e+00 </wgt>
   <wgt id='1005'>  +5.4699617e+00 </wgt>
   <wgt id='1006'>  +5.5835591e+00 </wgt>
   <wgt id='1007'>  +5.8937294e+00 </wgt>
   <wgt id='1008'>  +5.8339672e+00 </wgt>
   <wgt id='1009'>  +5.9658390e+00 </wgt>
   <wgt id='1010'>  +5.0259440e+00 </wgt>
   <wgt id='1011'>  +5.0259440e+00 </wgt>
   <wgt id='1012'>  +5.0259440e+00 </wgt>
   <wgt id='1013'>  +4.8877997e+00 </wgt>
   <wgt id='1014'>  +4.8877997e+00 </wgt>
   <wgt id='1015'>  +4.8877997e+00 </wgt>
   <wgt id='1016'>  +5.1553463e+00 </wgt>
   <wgt id='1017'>  +5.1553463e+00 </wgt>
   <wgt id='1018'>  +5.1553463e+00 </wgt>
   <wgt id='1019'>  +6.8583194e-01 </wgt>
   <wgt id='1020'>  +6.3002105e-01 </wgt>
   <wgt id='1021'>  +7.5275563e-01 </wgt>
   <wgt id='1022'>  +6.3397226e-01 </wgt>
   <wgt id='1023'>  +5.8235953e-01 </wgt>
   <wgt id='1024'>  +6.9580876e-01 </wgt>
   <wgt id='1025'>  +7.3828431e-01 </wgt>
   <wgt id='1026'>  +6.7822586e-01 </wgt>
   <wgt id='1027'>  +8.1034457e-01 </wgt>
</rwgt>
</event> 
<event>
  9      0 +5.7119646e+00 1.20038910e+02 7.54677110e-03 1.12846310e-01
       21 -1    0    0  502  501 +0.00000000000e+00 +0.00000000000e+00 +4.89651936756e+01  4.89709372147e+01  7.50000000000e-01 0.0000e+00 -1.0000e+00
        2 -1    0    0  501    0 +0.00000000000e+00 +0.00000000000e+00 -8.99861220346e+02  8.99861277243e+02  3.20000000000e-01 0.0000e+00 -1.0000e+00
       24  2    1    2    0    0 +4.18566115114e+01 -8.43091763581e+01 -7.07235271484e+02  7.18282322615e+02  8.29924852318e+01 0.0000e+00 0.0000e+00
      -13  1    3    3    0    0 +2.87501178891e+01 +9.54523966449e+00 -1.47037381086e+02  1.50125559047e+02  1.05658000000e-01 0.0000e+00 1.0000e+00
       14  1    3    3    0    0 +1.31064936223e+01 -9.38544160226e+01 -5.60197890397e+02  5.68156763568e+02  0.00000000000e+00 0.0000e+00 -1.0000e+00
      -24  2    1    2    0    0 -5.19905309167e+01 +6.68181558808e+01 -1.64699988266e+02  2.01371409216e+02  7.90991596313e+01 0.0000e+00 0.0000e+00
       13  1    6    6    0    0 -3.61551717988e+01 -9.59984968969e+00 -6.15367249249e+01  7.20148126427e+01  1.05658000000e-01 0.0000e+00 -1.0000e+00
      -14  1    6    6    0    0 -1.58353591179e+01 +7.64180055704e+01 -1.03163263342e+02  1.29356596573e+02  0.00000000000e+00 0.0000e+00 1.0000e+00
        2  1    1    2  502    0 +1.01339194053e+01 +1.74910204773e+01 +2.10392330798e+01  2.91784826274e+01  3.20000000000e-01 0.0000e+00 -1.0000e+00
#aMCatNLO 2  0  0  1  2 0.20214651E+02 0.00000000E+00  9  5  0 0.00000000E+00 0.00000000E+00 0.00000000E+00 0.00000000E+00 0.00000000E+00
  <rwgt>
   <wgt id='1001'>  +5.7114796e+00 </wgt>
   <wgt id='1002'>  +5.1948584e+00 </wgt>
   <wgt id='1003'>  +6.3466372e+00 </wgt>
   <wgt id='1004'>  +5.6838211e+00 </wgt>
   <wgt id='1005'>  +5.1691755e+00 </wgt>
   <wgt id='1006'>  +6.3160153e+00 </wgt>
   <wgt id='1007'>  +5.6467785e+00 </wgt>
   <wgt id='1008'>  +5.1350963e+00 </wgt>
   <wgt id='1009'>  +6.2740337e+00 </wgt>
   <wgt id='1010'>  +0.0000000e+00 </wgt>
   <wgt id='1011'>  +0.0000000e+00 </wgt>
   <wgt id='1012'>  +0.0000000e+00 </wgt>
   <wgt id='1013'>  +0.0000000e+00 </wgt>
   <wgt id='1014'>  +0.0000000e+00 </wgt>
   <wgt id='1015'>  +0.0000000e+00 </wgt>
   <wgt id='1016'>  +0.0000000e+00 </wgt>
   <wgt id='1017'>  +0.0000000e+00 </wgt>
   <wgt id='1018'>  +0.0000000e+00 </wgt>
   <wgt id='1019'>  +5.7114796e+00 </wgt>
   <wgt id='1020'>  +5.1948584e+00 </wgt>
   <wgt id='1021'>  +6.3466372e+00 </wgt>
   <wgt id='1022'>  +5.6838211e+00 </wgt>
   <wgt id='1023'>  +5.1691755e+00 </wgt>
   <wgt id='1024'>  +6.3160153e+00 </wgt>
   <wgt id='1025'>  +5.6467785e+00 </wgt>
   <wgt id='1026'>  +5.1350963e+00 </wgt>
   <wgt id='1027'>  +6.2740337e+00 </wgt>
</rwgt>
</event> 
<event>
  8      0 +5.7119646e+00 8.10268880e+01 7.54677110e-03 1.01903810e-01
        2 -1    0    0  501    0 +0.00000000000e+00 +0.00000000000e+00 +5.91112636879e+02  5.91112723495e+02  3.20000000000e-01 0.0000e+00 -1.0000e+00
       -2 -1    0    0    0  501 +0.00000000000e+00 +0.00000000000e+00 -2.72116849586e+01  2.72135664382e+01  3.20000000000e-01 0.0000e+00 1.0000e+00
       24  2    1    2    0    0 -8.57384195152e-01 -8.95713073619e+00 +5.18815441763e+02  5.25129722921e+02  8.06895159492e+01 0.0000e+00 0.0000e+00
      -11  1    3    3    0    0 -1.55726984631e-02 +2.95478121790e+01 +9.31178370157e+01  9.76934236160e+01  5.10999000000e-04 0.0000e+00 1.0000e+00
       12  1    3    3    0    0 -8.41811496689e-01 -3.85049429152e+01 +4.25697604748e+02  4.27436299305e+02  0.00000000000e+00 0.0000e+00 -1.0000e+00
      -24  2    1    2    0    0 +8.57384195152e-01 +8.95713073619e+00 +4.50855101568e+01  9.31965670125e+01  8.10674507934e+01 0.0000e+00 0.0000e+00
       13  1    6    6    0    0 -2.72551442435e+01 -2.49887648033e+01 +1.53949769664e+01  4.00536856423e+01  1.05658000000e-01 0.0000e+00 -1.0000e+00
      -14  1    6    6    0    0 +2.81125284386e+01 +3.39458955395e+01 +2.96905331904e+01  5.31428813702e+01  0.00000000000e+00 0.0000e+00 1.0000e+00
#aMCatNLO 1  0  0  1  1 0.25205374E+03 0.00000000E+00  9  5  0 0.00000000E+00 0.00000000E+00 0.00000000E+00 0.00000000E+00 0.00000000E+00
  <rwgt>
   <wgt id='1001'>  +5.7119735e+00 </wgt>
   <wgt id='1002'>  +5.6378883e+00 </wgt>
   <wgt id='1003'>  +5.8043331e+00 </wgt>
   <wgt id='1004'>  +6.0112780e+00 </wgt>
   <wgt id='1005'>  +5.9371927e+00 </wgt>
   <wgt id='1006'>  +6.1041315e+00 </wgt>
   <wgt id='1007'>  +5.3356204e+00 </wgt>
   <wgt id='1008'>  +5.2635107e+00 </wgt>
   <wgt id='1009'>  +5.4260044e+00 </wgt>
   <wgt id='1010'>  +4.9469197e+00 </wgt>
   <wgt id='1011'>  +4.9469197e+00 </wgt>
   <wgt id='1012'>  +4.9469197e+00 </wgt>
   <wgt id='1013'>  +5.2432608e+00 </wgt>
   <wgt id='1014'>  +5.2432608e+00 </wgt>
   <wgt id='1015'>  +5.2432608e+00 </wgt>
   <wgt id='1016'>  +4.5891867e+00 </wgt>
   <wgt id='1017'>  +4.5891867e+00 </wgt>
   <wgt id='1018'>  +4.5891867e+00 </wgt>
   <wgt id='1019'>  +7.6460927e-01 </wgt>
   <wgt id='1020'>  +6.9062279e-01 </wgt>
   <wgt id='1021'>  +8.5696889e-01 </wgt>
   <wgt id='1022'>  +7.6791841e-01 </wgt>
   <wgt id='1023'>  +6.9353681e-01 </wgt>
   <wgt id='1024'>  +8.6067316e-01 </wgt>
   <wgt id='1025'>  +7.4648308e-01 </wgt>
   <wgt id='1026'>  +6.7422525e-01 </wgt>
   <wgt id='1027'>  +8.3666953e-01 </wgt>
</rwgt>
</event> 
<event>
  8      0 +5.7119646e+00 4.96041960e+01 7.54677110e-03 1.17646370e-01
       -2 -1    0    0    0  501 +0.00000000000e+00 +0.00000000000e+00 +8.79685234018e+01  8.79691054262e+01  3.20000000000e-01 0.0000e+00 1.0000e+00
        2 -1    0    0  501    0 +0.00000000000e+00 +0.00000000000e+00 -1.01808499417e+02  1.01809002321e+02  3.20000000000e-01 0.0000e+00 -1.0000e+00
       24  2    1    2    0    0 +8.35927337638e+00 +3.23286124142e+01 -4.38618030763e+01  9.72956499108e+01  8.01721216536e+01 0.0000e+00 0.0000e+00
      -13  1    3    3    0    0 +3.61075208995e+01 +2.98509546416e+00 -4.38869344323e+01  5.69099115965e+01  1.05658000000e-01 0.0000e+00 1.0000e+00
       14  1    3    3    0    0 -2.77482475232e+01 +2.93435169500e+01 +2.51313560529e-02  4.03857383143e+01  0.00000000000e+00 0.0000e+00 -1.0000e+00
      -24  2    1    2    0    0 -8.35927337638e+00 -3.23286124142e+01 +3.00218270607e+01  9.24824578365e+01  8.08497265018e+01 0.0000e+00 0.0000e+00
       13  1    6    6    0    0 -1.70480971792e+01 -4.26452351815e+01 -1.27259255995e+01  4.76572559753e+01  1.05658000000e-01 0.0000e+00 -1.0000e+00
      -14  1    6    6    0    0 +8.68882380278e+00 +1.03166227674e+01 +4.27477526602e+01  4.48252018612e+01  0.00000000000e+00 0.0000e+00 1.0000e+00
#aMCatNLO 1  0  0  1  2 0.21194548E+02 0.00000000E+00  9  5  0 0.00000000E+00 0.00000000E+00 0.00000000E+00 0.00000000E+00 0.00000000E+00
  <rwgt>
   <wgt id='1001'>  +5.7114796e+00 </wgt>
   <wgt id='1002'>  +5.5460225e+00 </wgt>
   <wgt id='1003'>  +5.9149671e+00 </wgt>
   <wgt id='1004'>  +6.0606681e+00 </wgt>
   <wgt id='1005'>  +5.8878025e+00 </wgt>
   <wgt id='1006'>  +6.2715642e+00 </wgt>
   <wgt id='1007'>  +5.4334129e+00 </wgt>
   <wgt id='1008'>  +5.2625229e+00 </wgt>
   <wgt id='1009'>  +5.6433212e+00 </wgt>
   <wgt id='1010'>  +3.8665097e+00 </wgt>
   <wgt id='1011'>  +3.8665097e+00 </wgt>
   <wgt id='1012'>  +3.8665097e+00 </wgt>
   <wgt id='1013'>  +4.1419587e+00 </wgt>
   <wgt id='1014'>  +4.1419587e+00 </wgt>
   <wgt id='1015'>  +4.1419587e+00 </wgt>
   <wgt id='1016'>  +3.5418187e+00 </wgt>
   <wgt id='1017'>  +3.5418187e+00 </wgt>
   <wgt id='1018'>  +3.5418187e+00 </wgt>
   <wgt id='1019'>  +1.8455132e+00 </wgt>
   <wgt id='1020'>  +1.6794141e+00 </wgt>
   <wgt id='1021'>  +2.0488032e+00 </wgt>
   <wgt id='1022'>  +1.9185119e+00 </wgt>
   <wgt id='1023'>  +1.7459920e+00 </wgt>
   <wgt id='1024'>  +2.1296055e+00 </wgt>
   <wgt id='1025'>  +1.8917918e+00 </wgt>
   <wgt id='1026'>  +1.7205561e+00 </wgt>
   <wgt id='1027'>  +2.1017494e+00 </wgt>
</rwgt>
</event> 
<event>
  9      0 +5.7119646e+00 1.21425630e+02 7.54677110e-03 1.09071390e-01
       21 -1    0    0  501  502 +0.00000000000e+00 +0.00000000000e+00 +9.00208757519e+01  9.00239999730e+01  7.50000000000e-01 0.0000e+00 1.0000e+00
       -1 -1    0    0    0  501 +0.00000000000e+00 +0.00000000000e+00 -3.25100414942e+02  3.25100572431e+02  3.20000000000e-01 0.0000e+00 1.0000e+00
       24  2    1    2    0    0 -7.22826517513e+01 +3.91804334963e+01 -1.30425078517e+02  1.74116277738e+02  8.09066681678e+01 0.0000e+00 0.0000e+00
      -11  1    3    3    0    0 -1.11472149071e+01 +4.95452066916e+01 -7.71576289636e+01  9.23703827741e+01  5.10999000000e-04 0.0000e+00 1.0000e+00
       12  1    3    3    0    0 -6.11354368443e+01 -1.03647731952e+01 -5.32674495538e+01  8.17458949642e+01  0.00000000000e+00 0.0000e+00 -1.0000e+00
      -24  2    1    2    0    0 +3.72645943854e+01 -1.08158135099e+02 -6.10324468627e+01  1.52198553371e+02  7.97032489629e+01 0.0000e+00 0.0000e+00
       11  1    6    6    0    0 -7.16267936382e+00 -6.20620596580e+01 +1.79459554282e+00  6.24997903844e+01  5.10999000000e-04 0.0000e+00 -1.0000e+00
      -12  1    6    6    0    0 +4.44272737492e+01 -4.60960754414e+01 -6.28270424055e+01  8.96987629865e+01  0.00000000000e+00 0.0000e+00 1.0000e+00
       -1  1    1    2    0  502 +3.50180573660e+01 +6.89777016031e+01 -4.36220138097e+01  8.88097412954e+01  3.20000000000e-01 0.0000e+00 1.0000e+00
#aMCatNLO 2  0  0  1  2 0.77357531E+02 0.00000000E+00  9  5  0 0.00000000E+00 0.00000000E+00 0.00000000E+00 0.00000000E+00 0.00000000E+00
  <rwgt>
   <wgt id='1001'>  +5.7119735e+00 </wgt>
   <wgt id='1002'>  +5.2111572e+00 </wgt>
   <wgt id='1003'>  +6.3219422e+00 </wgt>
   <wgt id='1004'>  +5.6625833e+00 </wgt>
   <wgt id='1005'>  +5.1662121e+00 </wgt>
   <wgt id='1006'>  +6.2671191e+00 </wgt>
   <wgt id='1007'>  +5.6635712e+00 </wgt>
   <wgt id='1008'>  +5.1667060e+00 </wgt>
   <wgt id='1009'>  +6.2681069e+00 </wgt>
   <wgt id='1010'>  +0.0000000e+00 </wgt>
   <wgt id='1011'>  +0.0000000e+00 </wgt>
   <wgt id='1012'>  +0.0000000e+00 </wgt>
   <wgt id='1013'>  +0.0000000e+00 </wgt>
   <wgt id='1014'>  +0.0000000e+00 </wgt>
   <wgt id='1015'>  +0.0000000e+00 </wgt>
   <wgt id='1016'>  +0.0000000e+00 </wgt>
   <wgt id='1017'>  +0.0000000e+00 </wgt>
   <wgt id='1018'>  +0.0000000e+00 </wgt>
   <wgt id='1019'>  +5.7119735e+00 </wgt>
   <wgt id='1020'>  +5.2111572e+00 </wgt>
   <wgt id='1021'>  +6.3219422e+00 </wgt>
   <wgt id='1022'>  +5.6625833e+00 </wgt>
   <wgt id='1023'>  +5.1662121e+00 </wgt>
   <wgt id='1024'>  +6.2671191e+00 </wgt>
   <wgt id='1025'>  +5.6635712e+00 </wgt>
   <wgt id='1026'>  +5.1667060e+00 </wgt>
   <wgt id='1027'>  +6.2681069e+00 </wgt>
</rwgt>
</event> 
<event>
  9      0 +5.7119646e+00 1.22744550e+02 7.54677110e-03 1.03316830e-01
        2 -1    0    0  501    0 +0.00000000000e+00 +0.00000000000e+00 +1.06759355797e+03  1.06759360593e+03  3.20000000000e-01 0.0000e+00 -1.0000e+00
       21 -1    0    0  502  501 +0.00000000000e+00 +0.00000000000e+00 -6.90531367953e+01  6.90572096256e+01  7.50000000000e-01 0.0000e+00 -1.0000e+00
       24  2    1    2    0    0 -3.08539450434e+01 +9.03725864154e+01 +2.98826728363e+02  3.23144001732e+02  7.74949157744e+01 0.0000e+00 0.0000e+00
      -13  1    3    3    0    0 -3.39536335563e+01 +7.44702761183e+00 +5.04066764420e+01  6.12303163920e+01  1.05658000000e-01 0.0000e+00 1.0000e+00
       14  1    3    3    0    0 +3.09968851294e+00 +8.29255588036e+01 +2.48420051921e+02  2.61913685340e+02  0.00000000000e+00 0.0000e+00 -1.0000e+00
      -24  2    1    2    0    0 +1.61685090591e+02 +4.37874232456e+01 +5.26521708696e+02  5.58337727531e+02  8.03523571669e+01 0.0000e+00 0.0000e+00
       13  1    6    6    0    0 +5.78062997979e+01 -1.86538646433e+01 +1.25955271400e+02  1.39836606507e+02  1.05658000000e-01 0.0000e+00 -1.0000e+00
      -14  1    6    6    0    0 +1.03878790793e+02 +6.24412878889e+01 +4.00566437296e+02  4.18501121024e+02  0.00000000000e+00 0.0000e+00 1.0000e+00
        2  1    1    2  502    0 -1.30831145548e+02 -1.34160009661e+02 +1.73191984120e+02  2.55169086295e+02  3.20000000000e-01 0.0000e+00 -1.0000e+00
#aMCatNLO 2  0  0  2  2 0.18739183E+03 0.00000000E+00  9  5  0 0.00000000E+00 0.00000000E+00 0.00000000E+00 0.00000000E+00 0.00000000E+00
  <rwgt>
   <wgt id='1001'>  +5.7119735e+00 </wgt>
   <wgt id='1002'>  +5.2363462e+00 </wgt>
   <wgt id='1003'>  +6.2848995e+00 </wgt>
   <wgt id='1004'>  +5.5430591e+00 </wgt>
   <wgt id='1005'>  +5.0812610e+00 </wgt>
   <wgt id='1006'>  +6.0991925e+00 </wgt>
   <wgt id='1007'>  +5.8339672e+00 </wgt>
   <wgt id='1008'>  +5.3479679e+00 </wgt>
   <wgt id='1009'>  +6.4192408e+00 </wgt>
   <wgt id='1010'>  +0.0000000e+00 </wgt>
   <wgt id='1011'>  +0.0000000e+00 </wgt>
   <wgt id='1012'>  +0.0000000e+00 </wgt>
   <wgt id='1013'>  +0.0000000e+00 </wgt>
   <wgt id='1014'>  +0.0000000e+00 </wgt>
   <wgt id='1015'>  +0.0000000e+00 </wgt>
   <wgt id='1016'>  +0.0000000e+00 </wgt>
   <wgt id='1017'>  +0.0000000e+00 </wgt>
   <wgt id='1018'>  +0.0000000e+00 </wgt>
   <wgt id='1019'>  +5.7119735e+00 </wgt>
   <wgt id='1020'>  +5.2363462e+00 </wgt>
   <wgt id='1021'>  +6.2848995e+00 </wgt>
   <wgt id='1022'>  +5.5430591e+00 </wgt>
   <wgt id='1023'>  +5.0812610e+00 </wgt>
   <wgt id='1024'>  +6.0991925e+00 </wgt>
   <wgt id='1025'>  +5.8339672e+00 </wgt>
   <wgt id='1026'>  +5.3479679e+00 </wgt>
   <wgt id='1027'>  +6.4192408e+00 </wgt>
</rwgt>
</event> 
<event>
  8      0 +5.7119646e+00 6.13328750e+01 7.54677110e-03 1.13801810e-01
       -1 -1    0    0    0  501 +0.00000000000e+00 +0.00000000000e+00 +2.11496164332e+01  2.11520371424e+01  3.20000000000e-01 0.0000e+00 1.0000e+00
        1 -1    0    0  501    0 +0.00000000000e+00 +0.00000000000e+00 -3.48682065626e+02  3.48682212465e+02  3.20000000000e-01 0.0000e+00 -1.0000e+00
       24  2    1    2    0    0 +2.66222309776e+01 +4.62658171041e+00 -1.94745283951e+02  2.12617064473e+02  8.09329478252e+01 0.0000e+00 0.0000e+00
      -13  1    3    3    0    0 -2.74169735807e+01 +1.00712707448e+01 -4.85500914210e+01  5.66590105397e+01  1.05658000000e-01 0.0000e+00 1.0000e+00
       14  1    3    3    0    0 +5.40392045583e+01 -5.44468903440e+00 -1.46195192530e+02  1.55958053934e+02  0.00000000000e+00 0.0000e+00 -1.0000e+00
      -24  2    1    2    0    0 -2.66222309776e+01 -4.62658171041e+00 -1.32787165242e+02  1.57217185134e+02  7.97161439594e+01 0.0000e+00 0.0000e+00
       13  1    6    6    0    0 -8.54401887076e+00 -1.90740041457e+00 -1.37944529356e+02  1.38222077750e+02  1.05658000000e-01 0.0000e+00 -1.0000e+00
      -14  1    6    6    0    0 -1.80782121069e+01 -2.71918129584e+00 +5.15736411375e+00  1.89951073833e+01  0.00000000000e+00 0.0000e+00 1.0000e+00
#aMCatNLO 1  0  0  2  1 0.64872041E+02 0.00000000E+00  9  5  0 0.00000000E+00 0.00000000E+00 0.00000000E+00 0.00000000E+00 0.00000000E+00
  <rwgt>
   <wgt id='1001'>  +5.7119735e+00 </wgt>
   <wgt id='1002'>  +5.7465466e+00 </wgt>
   <wgt id='1003'>  +5.6685102e+00 </wgt>
   <wgt id='1004'>  +4.3678694e+00 </wgt>
   <wgt id='1005'>  +4.5732337e+00 </wgt>
   <wgt id='1006'>  +4.1117319e+00 </wgt>
   <wgt id='1007'>  +6.8420207e+00 </wgt>
   <wgt id='1008'>  +6.7195331e+00 </wgt>
   <wgt id='1009'>  +6.9936485e+00 </wgt>
   <wgt id='1010'>  +6.0572108e+00 </wgt>
   <wgt id='1011'>  +6.0572108e+00 </wgt>
   <wgt id='1012'>  +6.0572108e+00 </wgt>
   <wgt id='1013'>  +6.4873992e+00 </wgt>
   <wgt id='1014'>  +6.4873992e+00 </wgt>
   <wgt id='1015'>  +6.4873992e+00 </wgt>
   <wgt id='1016'>  +5.5549128e+00 </wgt>
   <wgt id='1017'>  +5.5549128e+00 </wgt>
   <wgt id='1018'>  +5.5549128e+00 </wgt>
   <wgt id='1019'>  -3.4521262e-01 </wgt>
   <wgt id='1020'>  -3.1058023e-01 </wgt>
   <wgt id='1021'>  -3.8875499e-01 </wgt>
   <wgt id='1022'>  -2.1195793e+00 </wgt>
   <wgt id='1023'>  -1.9141655e+00 </wgt>
   <wgt id='1024'>  -2.3757661e+00 </wgt>
   <wgt id='1025'>  +1.2868116e+00 </wgt>
   <wgt id='1026'>  +1.1643733e+00 </wgt>
   <wgt id='1027'>  +1.4388839e+00 </wgt>
</rwgt>
</event> 
<event>
  9      0 +5.7119646e+00 1.14186750e+02 7.54677110e-03 1.05228230e-01
        1 -1    0    0  501    0 +0.00000000000e+00 +0.00000000000e+00 +1.59901885727e+03  1.59901888929e+03  3.20000000000e-01 0.0000e+00 -1.0000e+00
       21 -1    0    0  502  501 +0.00000000000e+00 +0.00000000000e+00 -3.89801720549e+01  3.89873865940e+01  7.50000000000e-01 0.0000e+00 -1.0000e+00
       24  2    1    2    0    0 +7.73326843256e+01 +1.43352468415e+02 +5.22965351633e+02  5.54085777723e+02  8.35943526832e+01 0.0000e+00 0.0000e+00
      -13  1    3    3    0    0 -1.72047003923e+01 +2.02516088572e+01 +1.02443231383e+02  1.05833625076e+02  1.05658000000e-01 0.0000e+00 1.0000e+00
       14  1    3    3    0    0 +9.45373847179e+01 +1.23100859558e+02 +4.20522120250e+02  4.48252152647e+02  0.00000000000e+00 0.0000e+00 -1.0000e+00
      -24  2    1    2    0    0 -4.39342106899e+01 +9.96511638274e+00 +7.59357437008e+02  7.64940935399e+02  8.05071369295e+01 0.0000e+00 0.0000e+00
       13  1    6    6    0    0 -2.89857946250e+01 +4.18821100293e+01 +3.05477888622e+02  3.09695074276e+02  1.05658000000e-01 0.0000e+00 -1.0000e+00
      -14  1    6    6    0    0 -1.49484160649e+01 -3.19169936466e+01 +4.53879548386e+02  4.55245861123e+02  0.00000000000e+00 0.0000e+00 1.0000e+00
        1  1    1    2  502    0 -3.33984736357e+01 -1.53317584798e+02 +2.77715896572e+02  3.18979562760e+02  3.20000000000e-01 0.0000e+00 -1.0000e+00
#aMCatNLO 2  0  0  2  1 0.15764199E+03 0.00000000E+00  9  5  0 0.00000000E+00 0.00000000E+00 0.00000000E+00 0.00000000E+00 0.00000000E+00
  <rwgt>
   <wgt id='1001'>  +5.7119735e+00 </wgt>
   <wgt id='1002'>  +5.2279498e+00 </wgt>
   <wgt id='1003'>  +6.2972471e+00 </wgt>
   <wgt id='1004'>  +5.5035470e+00 </wgt>
   <wgt id='1005'>  +5.0373038e+00 </wgt>
   <wgt id='1006'>  +6.0675828e+00 </wgt>
   <wgt id='1007'>  +5.8611318e+00 </wgt>
   <wgt id='1008'>  +5.3642667e+00 </wgt>
   <wgt id='1009'>  +6.4617163e+00 </wgt>
   <wgt id='1010'>  +0.0000000e+00 </wgt>
   <wgt id='1011'>  +0.0000000e+00 </wgt>
   <wgt id='1012'>  +0.0000000e+00 </wgt>
   <wgt id='1013'>  +0.0000000e+00 </wgt>
   <wgt id='1014'>  +0.0000000e+00 </wgt>
   <wgt id='1015'>  +0.0000000e+00 </wgt>
   <wgt id='1016'>  +0.0000000e+00 </wgt>
   <wgt id='1017'>  +0.0000000e+00 </wgt>
   <wgt id='1018'>  +0.0000000e+00 </wgt>
   <wgt id='1019'>  +5.7119735e+00 </wgt>
   <wgt id='1020'>  +5.2279498e+00 </wgt>
   <wgt id='1021'>  +6.2972471e+00 </wgt>
   <wgt id='1022'>  +5.5035470e+00 </wgt>
   <wgt id='1023'>  +5.0373038e+00 </wgt>
   <wgt id='1024'>  +6.0675828e+00 </wgt>
   <wgt id='1025'>  +5.8611318e+00 </wgt>
   <wgt id='1026'>  +5.3642667e+00 </wgt>
   <wgt id='1027'>  +6.4617163e+00 </wgt>
</rwgt>
</event> 
<event>
  8      0 +5.7119646e+00 8.05943260e+01 7.54677110e-03 1.11831230e-01
       -2 -1    0    0    0  501 +0.00000000000e+00 +0.00000000000e+00 +1.19819907016e+03  1.19819911289e+03  3.20000000000e-01 0.0000e+00 1.0000e+00
        2 -1    0    0  501    0 +0.00000000000e+00 +0.00000000000e+00 -6.68077308251e+00  6.68843247555e+00  3.20000000000e-01 0.0000e+00 -1.0000e+00
       24  2    1    2    0    0 -2.93323312446e+00 +4.97677946981e+00 +3.26391772377e+02  3.35905245551e+02  7.91667400021e+01 0.0000e+00 0.0000e+00
      -13  1    3    3    0    0 +1.41659847004e+01 -3.38284493066e+01 +1.36986176048e+02  1.41810657910e+02  1.05658000000e-01 0.0000e+00 1.0000e+00
       14  1    3    3    0    0 -1.70992178248e+01 +3.88052287764e+01 +1.89405596329e+02  1.94094587641e+02  0.00000000000e+00 0.0000e+00 -1.0000e+00
      -24  2    1    2    0    0 +2.93323312446e+00 -4.97677946981e+00 +8.65126524701e+02  8.68982299816e+02  8.15656880206e+01 0.0000e+00 0.0000e+00
       11  1    6    6    0    0 +3.25247275052e+01 -2.34670661102e+01 +2.85108209759e+02  2.87915356248e+02  5.10999000000e-04 0.0000e+00 -1.0000e+00
      -12  1    6    6    0    0 -2.95914943807e+01 +1.84902866403e+01 +5.80018314942e+02  5.81066943568e+02  0.00000000000e+00 0.0000e+00 1.0000e+00
#aMCatNLO 1  0  0  1  2 0.92348770E+02 0.00000000E+00  9  5  0 0.00000000E+00 0.00000000E+00 0.00000000E+00 0.00000000E+00 0.00000000E+00
  <rwgt>
   <wgt id='1001'>  +5.7119735e+00 </wgt>
   <wgt id='1002'>  +5.6522114e+00 </wgt>
   <wgt id='1003'>  +5.7865527e+00 </wgt>
   <wgt id='1004'>  +5.8300160e+00 </wgt>
   <wgt id='1005'>  +5.7811198e+00 </wgt>
   <wgt id='1006'>  +5.8912598e+00 </wgt>
   <wgt id='1007'>  +5.5331811e+00 </wgt>
   <wgt id='1008'>  +5.4620592e+00 </wgt>
   <wgt id='1009'>  +5.6220834e+00 </wgt>
   <wgt id='1010'>  +5.0936086e+00 </wgt>
   <wgt id='1011'>  +5.0936086e+00 </wgt>
   <wgt id='1012'>  +5.0936086e+00 </wgt>
   <wgt id='1013'>  +5.3237668e+00 </wgt>
   <wgt id='1014'>  +5.3237668e+00 </wgt>
   <wgt id='1015'>  +5.3237668e+00 </wgt>
   <wgt id='1016'>  +4.7983047e+00 </wgt>
   <wgt id='1017'>  +4.7983047e+00 </wgt>
   <wgt id='1018'>  +4.7983047e+00 </wgt>
   <wgt id='1019'>  +6.1811802e-01 </wgt>
   <wgt id='1020'>  +5.5820774e-01 </wgt>
   <wgt id='1021'>  +6.9284535e-01 </wgt>
   <wgt id='1022'>  +5.0639745e-01 </wgt>
   <wgt id='1023'>  +4.5730361e-01 </wgt>
   <wgt id='1024'>  +5.6759187e-01 </wgt>
   <wgt id='1025'>  +7.3477761e-01 </wgt>
   <wgt id='1026'>  +6.6360637e-01 </wgt>
   <wgt id='1027'>  +8.2363053e-01 </wgt>
</rwgt>
</event> 
<event>
  8      0 +5.7119646e+00 9.00003560e+01 7.54677110e-03 9.86007410e-02
        1 -1    0    0  501    0 +0.00000000000e+00 +0.00000000000e+00 +3.45443768398e+02  3.45443916613e+02  3.20000000000e-01 0.0000e+00 -1.0000e+00
       -1 -1    0    0    0  501 +0.00000000000e+00 +0.00000000000e+00 -3.81155705851e+01  3.81169138445e+01  3.20000000000e-01 0.0000e+00 1.0000e+00
       24  2    1    2    0    0 +3.30764210309e+01 +2.41456300538e+01 +3.39801864720e+01  9.62792784709e+01  8.02370569706e+01 0.0000e+00 0.0000e+00
      -13  1    3    3    0    0 +2.18723038987e+01 +4.83962521751e+01 +6.83660334100e-02  5.31094223275e+01  1.05658000000e-01 0.0000e+00 1.0000e+00
       14  1    3    3    0    0 +1.12041171321e+01 -2.42506221213e+01 +3.39118204386e+01  4.31698561434e+01  0.00000000000e+00 0.0000e+00 -1.0000e+00
      -24  2    1    2    0    0 -3.30764210309e+01 -2.41456300538e+01 +2.73348011341e+02  2.87281551987e+02  7.83230089371e+01 0.0000e+00 0.0000e+00
       11  1    6    6    0    0 -2.64553823104e+01 -2.85418202912e+01 +2.76131643289e+02  2.78860551502e+02  5.10999000000e-04 0.0000e+00 -1.0000e+00
      -12  1    6    6    0    0 -6.62103872042e+00 +4.39619023735e+00 -2.78363194749e+00  8.42100048446e+00  0.00000000000e+00 0.0000e+00 1.0000e+00
#aMCatNLO 1  0  0  2  2 0.33546414E+03 0.00000000E+00  9  5  0 0.00000000E+00 0.00000000E+00 0.00000000E+00 0.00000000E+00 0.00000000E+00
  <rwgt>
   <wgt id='1001'>  +5.7119735e+00 </wgt>
   <wgt id='1002'>  +5.5845469e+00 </wgt>
   <wgt id='1003'>  +5.8700221e+00 </wgt>
   <wgt id='1004'>  +5.4003215e+00 </wgt>
   <wgt id='1005'>  +5.3247546e+00 </wgt>
   <wgt id='1006'>  +5.4936690e+00 </wgt>
   <wgt id='1007'>  +6.0265889e+00 </wgt>
   <wgt id='1008'>  +5.8423636e+00 </wgt>
   <wgt id='1009'>  +6.2552654e+00 </wgt>
   <wgt id='1010'>  +4.3796736e+00 </wgt>
   <wgt id='1011'>  +4.3796736e+00 </wgt>
   <wgt id='1012'>  +4.3796736e+00 </wgt>
   <wgt id='1013'>  +4.6124001e+00 </wgt>
   <wgt id='1014'>  +4.6124001e+00 </wgt>
   <wgt id='1015'>  +4.6124001e+00 </wgt>
   <wgt id='1016'>  +4.0954825e+00 </wgt>
   <wgt id='1017'>  +4.0954825e+00 </wgt>
   <wgt id='1018'>  +4.0954825e+00 </wgt>
   <wgt id='1019'>  +1.3324975e+00 </wgt>
   <wgt id='1020'>  +1.2053672e+00 </wgt>
   <wgt id='1021'>  +1.4903979e+00 </wgt>
   <wgt id='1022'>  +7.8787204e-01 </wgt>
   <wgt id='1023'>  +7.1274959e-01 </wgt>
   <wgt id='1024'>  +8.8121947e-01 </wgt>
   <wgt id='1025'>  +1.9311064e+00 </wgt>
   <wgt id='1026'>  +1.7468810e+00 </wgt>
   <wgt id='1027'>  +2.1599311e+00 </wgt>
</rwgt>
</event> 
<event>
  9      0 +5.7119646e+00 9.15409080e+01 7.54677110e-03 1.18046420e-01
       21 -1    0    0  502  501 +0.00000000000e+00 +0.00000000000e+00 +9.52198370749e+01  9.52227907204e+01  7.50000000000e-01 0.0000e+00 1.0000e+00
        2 -1    0    0  501    0 +0.00000000000e+00 +0.00000000000e+00 -2.61552427720e+02  2.61552623474e+02  3.20000000000e-01 0.0000e+00 -1.0000e+00
       24  2    1    2    0    0 -2.54884250270e+01 +2.97200129002e+01 -2.21748570830e+02  2.39276885808e+02  8.09200867494e+01 0.0000e+00 0.0000e+00
      -11  1    3    3    0    0 -9.88902616143e+00 -2.82039148072e+01 -7.60954565775e+01  8.17543403182e+01  5.10999000000e-04 0.0000e+00 1.0000e+00
       12  1    3    3    0    0 -1.55993988656e+01 +5.79239277074e+01 -1.45653114253e+02  1.57522545490e+02  0.00000000000e+00 0.0000e+00 -1.0000e+00
      -24  2    1    2    0    0 +3.31644476011e+01 -3.45085652025e+01 +4.75688059403e+01  1.05518040110e+02  8.11205512369e+01 0.0000e+00 0.0000e+00
       11  1    6    6    0    0 -1.08735352246e+00 +2.09047605393e+01 -5.32982922778e+00  2.16008895823e+01  5.10999000000e-04 0.0000e+00 -1.0000e+00
      -12  1    6    6    0    0 +3.42518011236e+01 -5.54133257419e+01 +5.28986351681e+01  8.39171505274e+01  0.00000000000e+00 0.0000e+00 1.0000e+00
        2  1    1    2  502    0 -7.67602257407e+00 +4.78855230234e+00 +7.84717424525e+00  1.19804882766e+01  3.20000000000e-01 0.0000e+00 -1.0000e+00
#aMCatNLO 2  0  0  1  2 0.90471850E+01 0.00000000E+00  9  5  0 0.00000000E+00 0.00000000E+00 0.00000000E+00 0.00000000E+00 0.00000000E+00
  <rwgt>
   <wgt id='1001'>  +5.7114796e+00 </wgt>
   <wgt id='1002'>  +5.1721389e+00 </wgt>
   <wgt id='1003'>  +6.3812104e+00 </wgt>
   <wgt id='1004'>  +5.8063088e+00 </wgt>
   <wgt id='1005'>  +5.2575839e+00 </wgt>
   <wgt id='1006'>  +6.4859175e+00 </wgt>
   <wgt id='1007'>  +5.5346628e+00 </wgt>
   <wgt id='1008'>  +5.0116209e+00 </wgt>
   <wgt id='1009'>  +6.1826619e+00 </wgt>
   <wgt id='1010'>  +0.0000000e+00 </wgt>
   <wgt id='1011'>  +0.0000000e+00 </wgt>
   <wgt id='1012'>  +0.0000000e+00 </wgt>
   <wgt id='1013'>  +0.0000000e+00 </wgt>
   <wgt id='1014'>  +0.0000000e+00 </wgt>
   <wgt id='1015'>  +0.0000000e+00 </wgt>
   <wgt id='1016'>  +0.0000000e+00 </wgt>
   <wgt id='1017'>  +0.0000000e+00 </wgt>
   <wgt id='1018'>  +0.0000000e+00 </wgt>
   <wgt id='1019'>  +5.7114796e+00 </wgt>
   <wgt id='1020'>  +5.1721389e+00 </wgt>
   <wgt id='1021'>  +6.3812104e+00 </wgt>
   <wgt id='1022'>  +5.8063088e+00 </wgt>
   <wgt id='1023'>  +5.2575839e+00 </wgt>
   <wgt id='1024'>  +6.4859175e+00 </wgt>
   <wgt id='1025'>  +5.5346628e+00 </wgt>
   <wgt id='1026'>  +5.0116209e+00 </wgt>
   <wgt id='1027'>  +6.1826619e+00 </wgt>
</rwgt>
</event> 
<event>
  8      0 +5.7119646e+00 1.02968820e+02 7.54677110e-03 1.15773060e-01
       -1 -1    0    0    0  501 +0.00000000000e+00 +0.00000000000e+00 +7.64626101122e+00  7.65295416501e+00  3.20000000000e-01 0.0000e+00 1.0000e+00
        1 -1    0    0  501    0 +0.00000000000e+00 +0.00000000000e+00 -3.50299673176e+03  3.50299674637e+03  3.20000000000e-01 0.0000e+00 -1.0000e+00
       24  2    1    2    0    0 -5.79934161797e+01 -2.76391043411e+01 -3.84558805187e+02  3.98150955696e+02  8.06941910269e+01 0.0000e+00 0.0000e+00
      -11  1    3    3    0    0 -2.14084570184e+01 -4.78830555511e+01 -2.90785691899e+02  2.95478303187e+02  5.10999000000e-04 0.0000e+00 1.0000e+00
       12  1    3    3    0    0 -3.65849591614e+01 +2.02439512100e+01 -9.37731132882e+01  1.02672652509e+02  0.00000000000e+00 0.0000e+00 -1.0000e+00
      -24  2    1    2    0    0 +5.79934161797e+01 +2.76391043410e+01 -3.11079166556e+03  3.11249874484e+03  8.06008295677e+01 0.0000e+00 0.0000e+00
       13  1    6    6    0    0 -9.19590733171e+00 +1.37214722756e+01 -1.66299569902e+03  1.66307773409e+03  1.05658000000e-01 0.0000e+00 -1.0000e+00
      -14  1    6    6    0    0 +6.71893235114e+01 +1.39176320654e+01 -1.44779596654e+03  1.44942101075e+03  0.00000000000e+00 0.0000e+00 1.0000e+00
#aMCatNLO 1  0  0  1  1 0.12793737E+02 0.00000000E+00  9  5  0 0.00000000E+00 0.00000000E+00 0.00000000E+00 0.00000000E+00 0.00000000E+00
  <rwgt>
   <wgt id='1001'>  +5.7119735e+00 </wgt>
   <wgt id='1002'>  +5.6364066e+00 </wgt>
   <wgt id='1003'>  +5.8048270e+00 </wgt>
   <wgt id='1004'>  +5.4842848e+00 </wgt>
   <wgt id='1005'>  +5.4151386e+00 </wgt>
   <wgt id='1006'>  +5.5702237e+00 </wgt>
   <wgt id='1007'>  +5.9258330e+00 </wgt>
   <wgt id='1008'>  +5.8448331e+00 </wgt>
   <wgt id='1009'>  +6.0270828e+00 </wgt>
   <wgt id='1010'>  +4.9060741e+00 </wgt>
   <wgt id='1011'>  +4.9060741e+00 </wgt>
   <wgt id='1012'>  +4.9060741e+00 </wgt>
   <wgt id='1013'>  +4.7426420e+00 </wgt>
   <wgt id='1014'>  +4.7426420e+00 </wgt>
   <wgt id='1015'>  +4.7426420e+00 </wgt>
   <wgt id='1016'>  +5.0560720e+00 </wgt>
   <wgt id='1017'>  +5.0560720e+00 </wgt>
   <wgt id='1018'>  +5.0560720e+00 </wgt>
   <wgt id='1019'>  +8.0575128e-01 </wgt>
   <wgt id='1020'>  +7.3033249e-01 </wgt>
   <wgt id='1021'>  +8.9899993e-01 </wgt>
   <wgt id='1022'>  +7.4179101e-01 </wgt>
   <wgt id='1023'>  +6.7239782e-01 </wgt>
   <wgt id='1024'>  +8.2763113e-01 </wgt>
   <wgt id='1025'>  +8.6990912e-01 </wgt>
   <wgt id='1026'>  +7.8851411e-01 </wgt>
   <wgt id='1027'>  +9.7056629e-01 </wgt>
</rwgt>
</event> 
<event>
  9      0 +5.7119646e+00 8.44700570e+01 7.54677110e-03 1.18198340e-01
        2 -1    0    0  502    0 +0.00000000000e+00 +0.00000000000e+00 +2.21518557317e+02  2.21518788448e+02  3.20000000000e-01 0.0000e+00 -1.0000e+00
       -2 -1    0    0    0  501 +0.00000000000e+00 +0.00000000000e+00 -4.15838308113e+01  4.15850620409e+01  3.20000000000e-01 0.0000e+00 1.0000e+00
       24  2    1    2    0    0 +2.99536325962e+00 -1.09960147229e+01 +8.21408549932e+01  1.16324296926e+02  8.15741224615e+01 0.0000e+00 0.0000e+00
      -13  1    3    3    0    0 -3.36618926500e+01 -1.00449517288e+01 +6.88979608941e+01  7.73366940785e+01  1.05658000000e-01 0.0000e+00 1.0000e+00
       14  1    3    3    0    0 +3.66572559096e+01 -9.51062994108e-01 +1.32428940991e+01  3.89876028471e+01  0.00000000000e+00 0.0000e+00 -1.0000e+00
      -24  2    1    2    0    0 -1.19023587236e+00 +3.14273672242e+01 +8.68975662099e+01  1.23541855331e+02  8.19896757728e+01 0.0000e+00 0.0000e+00
       11  1    6    6    0    0 -1.93233570427e+01 +3.42786038962e+01 +9.54858631075e+01  1.03276158266e+02  5.10999000000e-04 0.0000e+00 -1.0000e+00
      -12  1    6    6    0    0 +1.81331211704e+01 -2.85123667200e+00 -8.58829689762e+00  2.02656970652e+01  0.00000000000e+00 0.0000e+00 1.0000e+00
       21  1    1    2  502  501 -1.80512738726e+00 -2.04313525013e+01 +1.08963053021e+01  2.32376982327e+01  7.50000000000e-01 0.0000e+00 1.0000e+00
#aMCatNLO 2  0  0  1  1 0.20510940E+02 0.00000000E+00  9  5  0 0.00000000E+00 0.00000000E+00 0.00000000E+00 0.00000000E+00 0.00000000E+00
  <rwgt>
   <wgt id='1001'>  +5.7119735e+00 </wgt>
   <wgt id='1002'>  +5.1716450e+00 </wgt>
   <wgt id='1003'>  +6.3821982e+00 </wgt>
   <wgt id='1004'>  +6.1283327e+00 </wgt>
   <wgt id='1005'>  +5.5484920e+00 </wgt>
   <wgt id='1006'>  +6.8469597e+00 </wgt>
   <wgt id='1007'>  +5.2269620e+00 </wgt>
   <wgt id='1008'>  +4.7325170e+00 </wgt>
   <wgt id='1009'>  +5.8398941e+00 </wgt>
   <wgt id='1010'>  +0.0000000e+00 </wgt>
   <wgt id='1011'>  +0.0000000e+00 </wgt>
   <wgt id='1012'>  +0.0000000e+00 </wgt>
   <wgt id='1013'>  +0.0000000e+00 </wgt>
   <wgt id='1014'>  +0.0000000e+00 </wgt>
   <wgt id='1015'>  +0.0000000e+00 </wgt>
   <wgt id='1016'>  +0.0000000e+00 </wgt>
   <wgt id='1017'>  +0.0000000e+00 </wgt>
   <wgt id='1018'>  +0.0000000e+00 </wgt>
   <wgt id='1019'>  +5.7119735e+00 </wgt>
   <wgt id='1020'>  +5.1716450e+00 </wgt>
   <wgt id='1021'>  +6.3821982e+00 </wgt>
   <wgt id='1022'>  +6.1283327e+00 </wgt>
   <wgt id='1023'>  +5.5484920e+00 </wgt>
   <wgt id='1024'>  +6.8469597e+00 </wgt>
   <wgt id='1025'>  +5.2269620e+00 </wgt>
   <wgt id='1026'>  +4.7325170e+00 </wgt>
   <wgt id='1027'>  +5.8398941e+00 </wgt>
</rwgt>
</event> 
<event>
  8      0 +5.7119646e+00 8.76393650e+01 7.54677110e-03 1.11460150e-01
        4 -1    0    0  501    0 +0.00000000000e+00 +0.00000000000e+00 +2.22836808735e+02  2.22842199386e+02  1.55000000000e+00 0.0000e+00 -1.0000e+00
       -4 -1    0    0    0  501 +0.00000000000e+00 +0.00000000000e+00 -4.02177458584e+01  4.02476034309e+01  1.55000000000e+00 0.0000e+00 1.0000e+00
       24  2    1    2    0    0 -2.48229680906e+01 -1.15353934339e+01 +1.33304042662e+02  1.58871687395e+02  8.19817066132e+01 0.0000e+00 0.0000e+00
      -11  1    3    3    0    0 -3.54806291996e+00 +1.60085456451e+01 -4.28612970854e+00  1.69479554016e+01  5.10999000000e-04 0.0000e+00 1.0000e+00
       12  1    3    3    0    0 -2.12749051707e+01 -2.75439390789e+01 +1.37590172370e+02  1.41923731993e+02  0.00000000000e+00 0.0000e+00 -1.0000e+00
      -24  2    1    2    0    0 +2.48229680906e+01 +1.15353934339e+01 +4.93150202151e+01  1.04218115422e+02  8.76367463846e+01 0.0000e+00 0.0000e+00
       13  1    6    6    0    0 +7.91391877639e+00 -3.77690587592e+01 +1.31148060149e+01  4.07571001223e+01  1.05658000000e-01 0.0000e+00 -1.0000e+00
      -14  1    6    6    0    0 +1.69090493143e+01 +4.93044521931e+01 +3.62002142002e+01  6.34610153000e+01  0.00000000000e+00 0.0000e+00 1.0000e+00
#aMCatNLO 1  0  0  2  2 0.88460340E+02 0.00000000E+00  9  5  0 0.00000000E+00 0.00000000E+00 0.00000000E+00 0.00000000E+00 0.00000000E+00
  <rwgt>
   <wgt id='1001'>  +5.7119735e+00 </wgt>
   <wgt id='1002'>  +5.6601138e+00 </wgt>
   <wgt id='1003'>  +5.7761807e+00 </wgt>
   <wgt id='1004'>  +6.4953017e+00 </wgt>
   <wgt id='1005'>  +6.4404786e+00 </wgt>
   <wgt id='1006'>  +6.5634601e+00 </wgt>
   <wgt id='1007'>  +4.8105041e+00 </wgt>
   <wgt id='1008'>  +4.7639291e+00 </wgt>
   <wgt id='1009'>  +4.8683894e+00 </wgt>
   <wgt id='1010'>  +5.1716450e+00 </wgt>
   <wgt id='1011'>  +5.1716450e+00 </wgt>
   <wgt id='1012'>  +5.1716450e+00 </wgt>
   <wgt id='1013'>  +5.9243513e+00 </wgt>
   <wgt id='1014'>  +5.9243513e+00 </wgt>
   <wgt id='1015'>  +5.9243513e+00 </wgt>
   <wgt id='1016'>  +4.3243072e+00 </wgt>
   <wgt id='1017'>  +4.3243072e+00 </wgt>
   <wgt id='1018'>  +4.3243072e+00 </wgt>
   <wgt id='1019'>  +5.4008154e-01 </wgt>
   <wgt id='1020'>  +4.8837497e-01 </wgt>
   <wgt id='1021'>  +6.0438755e-01 </wgt>
   <wgt id='1022'>  +5.7119735e-01 </wgt>
   <wgt id='1023'>  +5.1652243e-01 </wgt>
   <wgt id='1024'>  +6.3920762e-01 </wgt>
   <wgt id='1025'>  +4.8621168e-01 </wgt>
   <wgt id='1026'>  +4.3966144e-01 </wgt>
   <wgt id='1027'>  +5.4408215e-01 </wgt>
</rwgt>
</event> 
<event>
  9      0 +5.7119646e+00 1.11509870e+02 7.54677110e-03 1.13716130e-01
       21 -1    0    0  502  501 +0.00000000000e+00 +0.00000000000e+00 +5.08806192588e+01  5.08861466036e+01  7.50000000000e-01 0.0000e+00 -1.0000e+00
        1 -1    0    0  501    0 +0.00000000000e+00 +0.00000000000e+00 -4.16059728940e+02  4.16059852000e+02  3.20000000000e-01 0.0000e+00 -1.0000e+00
       24  2    1    2    0    0 -5.99454278437e+01 -2.69108411823e+01 -2.81072395195e+02  2.99020471935e+02  7.80634588222e+01 0.0000e+00 0.0000e+00
      -13  1    3    3    0    0 -2.74648039003e+01 -4.69794034985e+01 -9.88322333877e+01  1.12823762242e+02  1.05658000000e-01 0.0000e+00 1.0000e+00
       14  1    3    3    0    0 -3.24806239434e+01 +2.00685623162e+01 -1.82240161807e+02  1.86196709693e+02  0.00000000000e+00 0.0000e+00 -1.0000e+00
      -24  2    1    2    0    0 +7.85894488246e+01 +4.12226779671e+01 -6.87164427199e+01  1.39829422747e+02  8.33948878550e+01 0.0000e+00 0.0000e+00
       11  1    6    6    0    0 +3.91000695573e+01 +1.73219511012e+01 +1.40900662623e+01  4.50266076545e+01  5.10999000000e-04 0.0000e+00 -1.0000e+00
      -12  1    6    6    0    0 +3.94893792673e+01 +2.39007268659e+01 -8.28065089822e+01  9.48028150925e+01  0.00000000000e+00 0.0000e+00 1.0000e+00
        1  1    1    2  502    0 -1.86440209808e+01 -1.43118367848e+01 -1.53902717671e+01  2.80961039213e+01  3.20000000000e-01 0.0000e+00 -1.0000e+00
#aMCatNLO 2  0  0  1  2 0.23503791E+02 0.00000000E+00  9  5  0 0.00000000E+00 0.00000000E+00 0.00000000E+00 0.00000000E+00 0.00000000E+00
  <rwgt>
   <wgt id='1001'>  +5.7119735e+00 </wgt>
   <wgt id='1002'>  +5.1909072e+00 </wgt>
   <wgt id='1003'>  +6.3520702e+00 </wgt>
   <wgt id='1004'>  +5.7919856e+00 </wgt>
   <wgt id='1005'>  +5.2635107e+00 </wgt>
   <wgt id='1006'>  +6.4409725e+00 </wgt>
   <wgt id='1007'>  +5.5316994e+00 </wgt>
   <wgt id='1008'>  +5.0274257e+00 </wgt>
   <wgt id='1009'>  +6.1520400e+00 </wgt>
   <wgt id='1010'>  +0.0000000e+00 </wgt>
   <wgt id='1011'>  +0.0000000e+00 </wgt>
   <wgt id='1012'>  +0.0000000e+00 </wgt>
   <wgt id='1013'>  +0.0000000e+00 </wgt>
   <wgt id='1014'>  +0.0000000e+00 </wgt>
   <wgt id='1015'>  +0.0000000e+00 </wgt>
   <wgt id='1016'>  +0.0000000e+00 </wgt>
   <wgt id='1017'>  +0.0000000e+00 </wgt>
   <wgt id='1018'>  +0.0000000e+00 </wgt>
   <wgt id='1019'>  +5.7119735e+00 </wgt>
   <wgt id='1020'>  +5.1909072e+00 </wgt>
   <wgt id='1021'>  +6.3520702e+00 </wgt>
   <wgt id='1022'>  +5.7919856e+00 </wgt>
   <wgt id='1023'>  +5.2635107e+00 </wgt>
   <wgt id='1024'>  +6.4409725e+00 </wgt>
   <wgt id='1025'>  +5.5316994e+00 </wgt>
   <wgt id='1026'>  +5.0274257e+00 </wgt>
   <wgt id='1027'>  +6.1520400e+00 </wgt>
</rwgt>
</event> 
<event>
  9      0 +5.7119646e+00 1.10948620e+02 7.54677110e-03 1.09975610e-01
        2 -1    0    0  501    0 +0.00000000000e+00 +0.00000000000e+00 +5.65788429953e+02  5.65788520447e+02  3.20000000000e-01 0.0000e+00 -1.0000e+00
       21 -1    0    0  502  501 +0.00000000000e+00 +0.00000000000e+00 -5.62103006964e+01  5.62153040050e+01  7.50000000000e-01 0.0000e+00 -1.0000e+00
       24  2    1    2    0    0 -3.58296431243e+01 +8.14560303296e+00 +2.44949083557e+02  2.60944900875e+02  8.21101308111e+01 0.0000e+00 0.0000e+00
      -13  1    3    3    0    0 +6.55411569608e+00 +3.65462878261e+01 +1.29656144402e+02  1.34867766835e+02  1.05658000000e-01 0.0000e+00 1.0000e+00
       14  1    3    3    0    0 -4.23837588204e+01 -2.84006847931e+01 +1.15292939155e+02  1.26077134039e+02  0.00000000000e+00 0.0000e+00 -1.0000e+00
      -24  2    1    2    0    0 +9.11116952415e+01 -6.34155127113e+01 +2.35710959910e+02  2.77708900854e+02  9.61234036531e+01 0.0000e+00 0.0000e+00
       11  1    6    6    0    0 +7.81042577935e+01 -5.18357543634e+01 +8.67121427748e+01  1.27695795627e+02  5.10999000000e-04 0.0000e+00 -1.0000e+00
      -12  1    6    6    0    0 +1.30074374480e+01 -1.15797583479e+01 +1.48998817135e+02  1.50013105227e+02  0.00000000000e+00 0.0000e+00 1.0000e+00
        2  1    1    2  502    0 -5.52820521172e+01 +5.52699096783e+01 +2.89180857903e+01  8.33500227229e+01  3.20000000000e-01 0.0000e+00 -1.0000e+00
#aMCatNLO 2  0  0  2  1 0.78172042E+02 0.00000000E+00  9  5  0 0.00000000E+00 0.00000000E+00 0.00000000E+00 0.00000000E+00 0.00000000E+00
  <rwgt>
   <wgt id='1001'>  +5.7119735e+00 </wgt>
   <wgt id='1002'>  +5.2072060e+00 </wgt>
   <wgt id='1003'>  +6.3278690e+00 </wgt>
   <wgt id='1004'>  +5.7297540e+00 </wgt>
   <wgt id='1005'>  +5.2235047e+00 </wgt>
   <wgt id='1006'>  +6.3471311e+00 </wgt>
   <wgt id='1007'>  +5.5889920e+00 </wgt>
   <wgt id='1008'>  +5.0950903e+00 </wgt>
   <wgt id='1009'>  +6.1915521e+00 </wgt>
   <wgt id='1010'>  +0.0000000e+00 </wgt>
   <wgt id='1011'>  +0.0000000e+00 </wgt>
   <wgt id='1012'>  +0.0000000e+00 </wgt>
   <wgt id='1013'>  +0.0000000e+00 </wgt>
   <wgt id='1014'>  +0.0000000e+00 </wgt>
   <wgt id='1015'>  +0.0000000e+00 </wgt>
   <wgt id='1016'>  +0.0000000e+00 </wgt>
   <wgt id='1017'>  +0.0000000e+00 </wgt>
   <wgt id='1018'>  +0.0000000e+00 </wgt>
   <wgt id='1019'>  +5.7119735e+00 </wgt>
   <wgt id='1020'>  +5.2072060e+00 </wgt>
   <wgt id='1021'>  +6.3278690e+00 </wgt>
   <wgt id='1022'>  +5.7297540e+00 </wgt>
   <wgt id='1023'>  +5.2235047e+00 </wgt>
   <wgt id='1024'>  +6.3471311e+00 </wgt>
   <wgt id='1025'>  +5.5889920e+00 </wgt>
   <wgt id='1026'>  +5.0950903e+00 </wgt>
   <wgt id='1027'>  +6.1915521e+00 </wgt>
</rwgt>
</event> 
<event>
  8      0 +5.7119646e+00 8.21235680e+01 7.54677110e-03 1.10795550e-01
        2 -1    0    0  501    0 +0.00000000000e+00 +0.00000000000e+00 +7.35707502911e+02  7.35707572504e+02  3.20000000000e-01 0.0000e+00 -1.0000e+00
       -2 -1    0    0    0  501 +0.00000000000e+00 +0.00000000000e+00 -1.11594617731e+01  1.11640488653e+01  3.20000000000e-01 0.0000e+00 1.0000e+00
       24  2    1    2    0    0 +1.39230408543e+01 +1.00650002596e+01 +5.21307437631e+02  5.27743267081e+02  8.03514537731e+01 0.0000e+00 0.0000e+00
      -13  1    3    3    0    0 +4.57892073319e+01 -5.03959619704e+00 +3.31810084608e+02  3.34992525960e+02  1.05658000000e-01 0.0000e+00 1.0000e+00
       14  1    3    3    0    0 -3.18661664776e+01 +1.51045964566e+01 +1.89497353023e+02  1.92750741121e+02  0.00000000000e+00 0.0000e+00 -1.0000e+00
      -24  2    1    2    0    0 -1.39230408543e+01 -1.00650002596e+01 +2.03240603507e+02  2.19128354288e+02  8.00958016514e+01 0.0000e+00 0.0000e+00
       11  1    6    6    0    0 -8.21836767640e+00 -4.51887821905e+01 +1.25166267124e+02  1.33327274138e+02  5.10999000000e-04 0.0000e+00 -1.0000e+00
      -12  1    6    6    0    0 -5.70467317787e+00 +3.51237819309e+01 +7.80743363829e+01  8.58010801495e+01  0.00000000000e+00 0.0000e+00 1.0000e+00
#aMCatNLO 1  0  0  1  1 0.10305792E+03 0.00000000E+00  9  5  0 0.00000000E+00 0.00000000E+00 0.00000000E+00 0.00000000E+00 0.00000000E+00
  <rwgt>
   <wgt id='1001'>  +5.7119735e+00 </wgt>
   <wgt id='1002'>  +5.6457907e+00 </wgt>
   <wgt id='1003'>  +5.7944551e+00 </wgt>
   <wgt id='1004'>  +6.0868449e+00 </wgt>
   <wgt id='1005'>  +6.0196743e+00 </wgt>
   <wgt id='1006'>  +6.1698204e+00 </wgt>
   <wgt id='1007'>  +5.2635107e+00 </wgt>
   <wgt id='1008'>  +5.1993035e+00 </wgt>
   <wgt id='1009'>  +5.3435228e+00 </wgt>
   <wgt id='1010'>  +5.0269318e+00 </wgt>
   <wgt id='1011'>  +5.0269318e+00 </wgt>
   <wgt id='1012'>  +5.0269318e+00 </wgt>
   <wgt id='1013'>  +5.3948886e+00 </wgt>
   <wgt id='1014'>  +5.3948886e+00 </wgt>
   <wgt id='1015'>  +5.3948886e+00 </wgt>
   <wgt id='1016'>  +4.5994599e+00 </wgt>
   <wgt id='1017'>  +4.5994599e+00 </wgt>
   <wgt id='1018'>  +4.5994599e+00 </wgt>
   <wgt id='1019'>  +6.8504170e-01 </wgt>
   <wgt id='1020'>  +6.1885887e-01 </wgt>
   <wgt id='1021'>  +7.6757268e-01 </wgt>
   <wgt id='1022'>  +6.9161059e-01 </wgt>
   <wgt id='1023'>  +6.2473630e-01 </wgt>
   <wgt id='1024'>  +7.7493182e-01 </wgt>
   <wgt id='1025'>  +6.6405088e-01 </wgt>
   <wgt id='1026'>  +5.9984365e-01 </wgt>
   <wgt id='1027'>  +7.4401357e-01 </wgt>
</rwgt>
</event> 
<event>
  8      0 +5.7119646e+00 8.84602160e+01 7.54677110e-03 1.15056730e-01
       -2 -1    0    0    0  501 +0.00000000000e+00 +0.00000000000e+00 +9.16841103841e+02  9.16841159685e+02  3.20000000000e-01 0.0000e+00 1.0000e+00
        2 -1    0    0  501    0 +0.00000000000e+00 +0.00000000000e+00 -1.11845858357e+01  1.11891626280e+01  3.20000000000e-01 0.0000e+00 -1.0000e+00
       24  2    1    2    0    0 -8.13044051672e+00 -3.46452124183e+01 +6.74992899919e+02  6.80571252690e+02  7.93436843083e+01 0.0000e+00 0.0000e+00
      -13  1    3    3    0    0 -4.10159415563e+01 -2.54061977040e+01 +4.96540134790e+02  4.98878641520e+02  1.05658000000e-01 0.0000e+00 1.0000e+00
       14  1    3    3    0    0 +3.28855010396e+01 -9.23901471429e+00 +1.78452765129e+02  1.81692611170e+02  0.00000000000e+00 0.0000e+00 -1.0000e+00
      -24  2    1    2    0    0 +8.13044051672e+00 +3.46452124183e+01 +2.30663618086e+02  2.47459069623e+02  8.22428819033e+01 0.0000e+00 0.0000e+00
       11  1    6    6    0    0 +3.78946248392e+01 -1.84994749862e+00 +6.53132560580e+01  7.55330809288e+01  5.10999000000e-04 0.0000e+00 -1.0000e+00
      -12  1    6    6    0    0 -2.97641843224e+01 +3.64951599169e+01 +1.65350362028e+02  1.71925988694e+02  0.00000000000e+00 0.0000e+00 1.0000e+00
#aMCatNLO 1  0  0  2  2 0.45930509E+02 0.00000000E+00  9  5  0 0.00000000E+00 0.00000000E+00 0.00000000E+00 0.00000000E+00 0.00000000E+00
  <rwgt>
   <wgt id='1001'>  +5.7114796e+00 </wgt>
   <wgt id='1002'>  +6.0532596e+00 </wgt>
   <wgt id='1003'>  +5.2877119e+00 </wgt>
   <wgt id='1004'>  +5.8828635e+00 </wgt>
   <wgt id='1005'>  +6.2463752e+00 </wgt>
   <wgt id='1006'>  +5.4309434e+00 </wgt>
   <wgt id='1007'>  +5.4630470e+00 </wgt>
   <wgt id='1008'>  +5.7781564e+00 </wgt>
   <wgt id='1009'>  +5.0708891e+00 </wgt>
   <wgt id='1010'>  +9.2794257e+00 </wgt>
   <wgt id='1011'>  +9.2794257e+00 </wgt>
   <wgt id='1012'>  +9.2794257e+00 </wgt>
   <wgt id='1013'>  +9.6834373e+00 </wgt>
   <wgt id='1014'>  +9.6834373e+00 </wgt>
   <wgt id='1015'>  +9.6834373e+00 </wgt>
   <wgt id='1016'>  +8.7613228e+00 </wgt>
   <wgt id='1017'>  +8.7613228e+00 </wgt>
   <wgt id='1018'>  +8.7613228e+00 </wgt>
   <wgt id='1019'>  -3.5678473e+00 </wgt>
   <wgt id='1020'>  -3.2267588e+00 </wgt>
   <wgt id='1021'>  -3.9919607e+00 </wgt>
   <wgt id='1022'>  -3.8004257e+00 </wgt>
   <wgt id='1023'>  -3.4370621e+00 </wgt>
   <wgt id='1024'>  -4.2521976e+00 </wgt>
   <wgt id='1025'>  -3.2984239e+00 </wgt>
   <wgt id='1026'>  -2.9830183e+00 </wgt>
   <wgt id='1027'>  -3.6904831e+00 </wgt>
</rwgt>
</event> 
<event>
  9      0 +5.7119646e+00 8.54248770e+01 7.54677110e-03 1.15401850e-01
       21 -1    0    0  501  502 +0.00000000000e+00 +0.00000000000e+00 +6.45154581570e+01  6.45198174301e+01  7.50000000000e-01 0.0000e+00 1.0000e+00
       -2 -1    0    0    0  501 +0.00000000000e+00 +0.00000000000e+00 -2.41549630590e+02  2.41549842554e+02  3.20000000000e-01 0.0000e+00 1.0000e+00
       24  2    1    2    0    0 +3.67889664464e+01 -3.17268684004e+01 -7.57566714423e+01  1.13256792576e+02  6.87604942234e+01 0.0000e+00 0.0000e+00
      -13  1    3    3    0    0 +4.90243203380e+01 -4.27860096001e+01 -4.75849792860e+01  8.06124557334e+01  1.05658000000e-01 0.0000e+00 1.0000e+00
       14  1    3    3    0    0 -1.22353538917e+01 +1.10591411997e+01 -2.81716921563e+01  3.26443368424e+01  0.00000000000e+00 0.0000e+00 -1.0000e+00
      -24  2    1    2    0    0 +5.53114558650e+00 +5.16134645062e+01 -1.81743808818e+01  9.74572196529e+01  8.04553183587e+01 0.0000e+00 0.0000e+00
       13  1    6    6    0    0 +1.46433969365e+01 -1.73425906647e+01 -1.61771457852e+01  2.78730287943e+01  1.05658000000e-01 0.0000e+00 -1.0000e+00
      -14  1    6    6    0    0 -9.11225134999e+00 +6.89560551709e+01 -1.99723509664e+00  6.95841908585e+01  0.00000000000e+00 0.0000e+00 1.0000e+00
       -2  1    1    2    0  502 -4.23201120329e+01 -1.98865961058e+01 -8.31031201085e+01  9.53556477558e+01  3.20000000000e-01 0.0000e+00 1.0000e+00
#aMCatNLO 2  0  0  1  1 0.46759690E+02 0.00000000E+00  9  5  0 0.00000000E+00 0.00000000E+00 0.00000000E+00 0.00000000E+00 0.00000000E+00
  <rwgt>
   <wgt id='1001'>  +5.7119735e+00 </wgt>
   <wgt id='1002'>  +5.1834987e+00 </wgt>
   <wgt id='1003'>  +6.3634299e+00 </wgt>
   <wgt id='1004'>  +5.8522416e+00 </wgt>
   <wgt id='1005'>  +5.3109253e+00 </wgt>
   <wgt id='1006'>  +6.5199968e+00 </wgt>
   <wgt id='1007'>  +5.4645288e+00 </wgt>
   <wgt id='1008'>  +4.9592673e+00 </wgt>
   <wgt id='1009'>  +6.0878327e+00 </wgt>
   <wgt id='1010'>  +0.0000000e+00 </wgt>
   <wgt id='1011'>  +0.0000000e+00 </wgt>
   <wgt id='1012'>  +0.0000000e+00 </wgt>
   <wgt id='1013'>  +0.0000000e+00 </wgt>
   <wgt id='1014'>  +0.0000000e+00 </wgt>
   <wgt id='1015'>  +0.0000000e+00 </wgt>
   <wgt id='1016'>  +0.0000000e+00 </wgt>
   <wgt id='1017'>  +0.0000000e+00 </wgt>
   <wgt id='1018'>  +0.0000000e+00 </wgt>
   <wgt id='1019'>  +5.7119735e+00 </wgt>
   <wgt id='1020'>  +5.1834987e+00 </wgt>
   <wgt id='1021'>  +6.3634299e+00 </wgt>
   <wgt id='1022'>  +5.8522416e+00 </wgt>
   <wgt id='1023'>  +5.3109253e+00 </wgt>
   <wgt id='1024'>  +6.5199968e+00 </wgt>
   <wgt id='1025'>  +5.4645288e+00 </wgt>
   <wgt id='1026'>  +4.9592673e+00 </wgt>
   <wgt id='1027'>  +6.0878327e+00 </wgt>
</rwgt>
</event> 
<event>
  8      0 +5.7119646e+00 8.12227230e+01 7.54677110e-03 1.09014770e-01
        2 -1    0    0  501    0 +0.00000000000e+00 +0.00000000000e+00 +1.76366835580e+02  1.76367125883e+02  3.20000000000e-01 0.0000e+00 -1.0000e+00
       -2 -1    0    0    0  501 +0.00000000000e+00 +0.00000000000e+00 -4.02707787176e+01  4.02720500908e+01  3.20000000000e-01 0.0000e+00 1.0000e+00
       24  2    1    2    0    0 -4.80371849772e+00 -3.96267159620e+00 +9.54499712117e+01  1.25006218918e+02  8.04803037168e+01 0.0000e+00 0.0000e+00
      -13  1    3    3    0    0 +3.45884947751e+01 -1.72905881209e+01 +3.93128484330e+01  5.51438085727e+01  1.05658000000e-01 0.0000e+00 1.0000e+00
       14  1    3    3    0    0 -3.93922132729e+01 +1.33279165247e+01 +5.61371227788e+01  6.98624103456e+01  0.00000000000e+00 0.0000e+00 -1.0000e+00
      -24  2    1    2    0    0 +4.80371849772e+00 +3.96267159620e+00 +4.06460856503e+01  9.16329570559e+01  8.18884366839e+01 0.0000e+00 0.0000e+00
       11  1    6    6    0    0 -8.44133922234e+00 +2.94395710730e+01 +5.23296487392e+01  6.06328020980e+01  5.10999000000e-04 0.0000e+00 -1.0000e+00
      -12  1    6    6    0    0 +1.32450577201e+01 -2.54768994768e+01 -1.16835630889e+01  3.10001549578e+01  0.00000000000e+00 0.0000e+00 1.0000e+00
#aMCatNLO 1  0  0  2  1 0.12713803E+03 0.00000000E+00  9  5  0 0.00000000E+00 0.00000000E+00 0.00000000E+00 0.00000000E+00 0.00000000E+00
  <rwgt>
   <wgt id='1001'>  +5.7119735e+00 </wgt>
   <wgt id='1002'>  +5.6077603e+00 </wgt>
   <wgt id='1003'>  +5.8418697e+00 </wgt>
   <wgt id='1004'>  +4.7861053e+00 </wgt>
   <wgt id='1005'>  +4.8091705e+00 </wgt>
   <wgt id='1006'>  +4.7572615e+00 </wgt>
   <wgt id='1007'>  +6.5175272e+00 </wgt>
   <wgt id='1008'>  +6.2918142e+00 </wgt>
   <wgt id='1009'>  +6.7985573e+00 </wgt>
   <wgt id='1010'>  +4.6349220e+00 </wgt>
   <wgt id='1011'>  +4.6349220e+00 </wgt>
   <wgt id='1012'>  +4.6349220e+00 </wgt>
   <wgt id='1013'>  +5.0244623e+00 </wgt>
   <wgt id='1014'>  +5.0244623e+00 </wgt>
   <wgt id='1015'>  +5.0244623e+00 </wgt>
   <wgt id='1016'>  +4.1871013e+00 </wgt>
   <wgt id='1017'>  +4.1871013e+00 </wgt>
   <wgt id='1018'>  +4.1871013e+00 </wgt>
q   <wgt id='1019'>  +1.0770021e+00 </wgt>
   <wgt id='1020'>  +9.7273946e-01 </wgt>
   <wgt id='1021'>  +1.2070464e+00 </wgt>
   <wgt id='1022'>  -2.3831252e-01 </wgt>
   <wgt id='1023'>  -2.1524237e-01 </wgt>
   <wgt id='1024'>  -2.6708230e-01 </wgt>
   <wgt id='1025'>  +2.3300802e+00 </wgt>
   <wgt id='1026'>  +2.1044659e+00 </wgt>
   <wgt id='1027'>  +2.6113572e+00 </wgt>
</rwgt>
</event> 
<event>
  8      0 +5.7119646e+00 1.96228610e+01 7.54677110e-03 1.19453500e-01
       -1 -1    0    0    0  501 +0.00000000000e+00 +0.00000000000e+00 +1.01611531008e+02  1.01612034887e+02  3.20000000000e-01 0.0000e+00 1.0000e+00
        1 -1    0    0  501    0 +0.00000000000e+00 +0.00000000000e+00 -7.68447897898e+01  7.68454560650e+01  3.20000000000e-01 0.0000e+00 -1.0000e+00
       24  2    1    2    0    0 -1.21922934245e+01 +2.21565969920e+01 +3.79083495097e+01  9.28361669562e+01  8.08822855967e+01 0.0000e+00 0.0000e+00
      -11  1    3    3    0    0 -2.66753023312e+01 +2.89852448931e+01 +5.61335678070e+01  6.85761883673e+01  5.10999000000e-04 0.0000e+00 1.0000e+00
       12  1    3    3    0    0 +1.44830089067e+01 -6.82864790109e+00 -1.82252182973e+01  2.42599785889e+01  0.00000000000e+00 0.0000e+00 -1.0000e+00
      -24  2    1    2    0    0 +1.21922934245e+01 -2.21565969920e+01 -1.31416082913e+01  8.56213239956e+01  8.07387295234e+01 0.0000e+00 0.0000e+00
       11  1    6    6    0    0 +8.73358134389e+00 -7.08764398688e+00 -4.70387223919e+01  4.83647758694e+01  5.10999000000e-04 0.0000e+00 -1.0000e+00
      -12  1    6    6    0    0 +3.45871208058e+00 -1.50689530051e+01 +3.38971141006e+01  3.72565481261e+01  0.00000000000e+00 0.0000e+00 1.0000e+00
#aMCatNLO 1  0  0  2  1 0.85309294E+01 0.00000000E+00  9  5  0 0.00000000E+00 0.00000000E+00 0.00000000E+00 0.00000000E+00 0.00000000E+00
  <rwgt>
   <wgt id='1001'>  +5.7119735e+00 </wgt>
   <wgt id='1002'>  +5.4309434e+00 </wgt>
   <wgt id='1003'>  +6.0596803e+00 </wgt>
   <wgt id='1004'>  +6.0685706e+00 </wgt>
   <wgt id='1005'>  +5.7732173e+00 </wgt>
   <wgt id='1006'>  +6.4340579e+00 </wgt>
   <wgt id='1007'>  +5.2753644e+00 </wgt>
   <wgt id='1008'>  +5.0135965e+00 </wgt>
   <wgt id='1009'>  +5.5998578e+00 </wgt>
   <wgt id='1010'>  +2.7441180e+00 </wgt>
   <wgt id='1011'>  +2.7441180e+00 </wgt>
   <wgt id='1012'>  +2.7441180e+00 </wgt>
   <wgt id='1013'>  +2.9455805e+00 </wgt>
   <wgt id='1014'>  +2.9455805e+00 </wgt>
   <wgt id='1015'>  +2.9455805e+00 </wgt>
   <wgt id='1016'>  +2.5071440e+00 </wgt>
   <wgt id='1017'>  +2.5071440e+00 </wgt>
   <wgt id='1018'>  +2.5071440e+00 </wgt>
   <wgt id='1019'>  +2.9678555e+00 </wgt>
   <wgt id='1020'>  +2.6871711e+00 </wgt>
   <wgt id='1021'>  +3.3158093e+00 </wgt>
   <wgt id='1022'>  +3.1227431e+00 </wgt>
   <wgt id='1023'>  +2.8274886e+00 </wgt>
   <wgt id='1024'>  +3.4887737e+00 </wgt>
   <wgt id='1025'>  +2.7682204e+00 </wgt>
   <wgt id='1026'>  +2.5063537e+00 </wgt>
   <wgt id='1027'>  +3.0929114e+00 </wgt>
</rwgt>
</event> 
<event>
  8      0 +5.7119646e+00 1.32088970e+02 7.54677110e-03 1.03303910e-01
       -2 -1    0    0    0  501 +0.00000000000e+00 +0.00000000000e+00 +4.72621843179e+01  4.72632676240e+01  3.20000000000e-01 0.0000e+00 1.0000e+00
        2 -1    0    0  501    0 +0.00000000000e+00 +0.00000000000e+00 -4.90187192021e+02  4.90187296471e+02  3.20000000000e-01 0.0000e+00 -1.0000e+00
       24  2    1    2    0    0 -7.61504325519e+01 +7.32318334270e+01 -3.54880383641e+02  3.78207342635e+02  7.70643726061e+01 0.0000e+00 0.0000e+00
      -11  1    3    3    0    0 +6.19769111947e+00 +2.49736111068e+01 -1.49926108639e+02  1.52118147106e+02  5.10999000000e-04 0.0000e+00 1.0000e+00
       12  1    3    3    0    0 -8.23481236713e+01 +4.82582223202e+01 -2.04954275001e+02  2.26089195529e+02  0.00000000000e+00 0.0000e+00 -1.0000e+00
      -24  2    1    2    0    0 +7.61504325519e+01 -7.32318334270e+01 -8.80446240628e+01  1.59243221460e+02  8.02792498084e+01 0.0000e+00 0.0000e+00
       11  1    6    6    0    0 +9.12566297657e+00 -5.36385586830e+01 -6.70027986363e+01  8.63119211217e+01  5.10999000000e-04 0.0000e+00 -1.0000e+00
      -12  1    6    6    0    0 +6.70247695753e+01 -1.95932747439e+01 -2.10418254265e+01  7.29313003387e+01  0.00000000000e+00 0.0000e+00 1.0000e+00
#aMCatNLO 1  0  0  2  1 0.18094588E+03 0.00000000E+00  9  5  0 0.00000000E+00 0.00000000E+00 0.00000000E+00 0.00000000E+00 0.00000000E+00
  <rwgt>
   <wgt id='1001'>  +5.7119735e+00 </wgt>
   <wgt id='1002'>  +5.6561626e+00 </wgt>
   <wgt id='1003'>  +5.7806259e+00 </wgt>
   <wgt id='1004'>  +5.9085464e+00 </wgt>
   <wgt id='1005'>  +5.8537233e+00 </wgt>
   <wgt id='1006'>  +5.9752231e+00 </wgt>
   <wgt id='1007'>  +5.4531690e+00 </wgt>
   <wgt id='1008'>  +5.3968642e+00 </wgt>
   <wgt id='1009'>  +5.5223153e+00 </wgt>
   <wgt id='1010'>  +5.0926208e+00 </wgt>
   <wgt id='1011'>  +5.0926208e+00 </wgt>
   <wgt id='1012'>  +5.0926208e+00 </wgt>
   <wgt id='1013'>  +5.3035168e+00 </wgt>
   <wgt id='1014'>  +5.3035168e+00 </wgt>
   <wgt id='1015'>  +5.3035168e+00 </wgt>
   <wgt id='1016'>  +4.8294205e+00 </wgt>
   <wgt id='1017'>  +4.8294205e+00 </wgt>
   <wgt id='1018'>  +4.8294205e+00 </wgt>
   <wgt id='1019'>  +6.1925399e-01 </wgt>
   <wgt id='1020'>  +5.6324553e-01 </wgt>
   <wgt id='1021'>  +6.8790633e-01 </wgt>
   <wgt id='1022'>  +6.0488145e-01 </wgt>
   <wgt id='1023'>  +5.5020653e-01 </wgt>
   <wgt id='1024'>  +6.7195331e-01 </wgt>
   <wgt id='1025'>  +6.2360033e-01 </wgt>
   <wgt id='1026'>  +5.6724614e-01 </wgt>
   <wgt id='1027'>  +6.9274657e-01 </wgt>
</rwgt>
</event> 
<event>
  9      0 +5.7119646e+00 1.45851120e+02 7.54677110e-03 1.07420950e-01
        2 -1    0    0  501    0 +0.00000000000e+00 +0.00000000000e+00 +2.28092796123e+03  2.28092798367e+03  3.20000000000e-01 0.0000e+00 -1.0000e+00
       21 -1    0    0  502  501 +0.00000000000e+00 +0.00000000000e+00 -1.90038561179e+01  1.90186499876e+01  7.50000000000e-01 0.0000e+00 1.0000e+00
       24  2    1    2    0    0 +1.31193344576e+02 +1.17497247897e+01 +1.46670949431e+03  1.47513968792e+03  8.63169071918e+01 0.0000e+00 0.0000e+00
      -13  1    3    3    0    0 +1.31178242314e+02 +1.16257862102e+00 +1.44544230410e+03  1.45138297788e+03  1.05658000000e-01 0.0000e+00 1.0000e+00
       14  1    3    3    0    0 +1.51022619721e-02 +1.05871461687e+01 +2.12671902174e+01  2.37567100377e+01  0.00000000000e+00 0.0000e+00 -1.0000e+00
      -24  2    1    2    0    0 -9.47732036051e+01 -7.25186070956e+01 +6.06320294082e+02  6.23063422894e+02  7.96418322005e+01 0.0000e+00 0.0000e+00
       13  1    6    6    0    0 -6.77774387002e+01 -1.83982040205e+00 +2.83082173625e+02  2.91088808311e+02  1.05658000000e-01 0.0000e+00 -1.0000e+00
      -14  1    6    6    0    0 -2.69957649049e+01 -7.06787866935e+01 +3.23238120457e+02  3.31974614583e+02  0.00000000000e+00 0.0000e+00 1.0000e+00
        2  1    1    2  502    0 -3.64201409708e+01 +6.07688823059e+01 +1.88894316713e+02  2.01743522849e+02  3.20000000000e-01 0.0000e+00 -1.0000e+00
#aMCatNLO 2  0  0  2  1 0.70846903E+02 0.00000000E+00  9  5  0 0.00000000E+00 0.00000000E+00 0.00000000E+00 0.00000000E+00 0.00000000E+00
  <rwgt>
   <wgt id='1001'>  +5.7119735e+00 </wgt>
   <wgt id='1002'>  +5.2180718e+00 </wgt>
   <wgt id='1003'>  +6.3115702e+00 </wgt>
   <wgt id='1004'>  +5.5361445e+00 </wgt>
   <wgt id='1005'>  +5.0575537e+00 </wgt>
   <wgt id='1006'>  +6.1174668e+00 </wgt>
   <wgt id='1007'>  +5.7974185e+00 </wgt>
   <wgt id='1008'>  +5.2966022e+00 </wgt>
   <wgt id='1009'>  +6.4059055e+00 </wgt>
   <wgt id='1010'>  +0.0000000e+00 </wgt>
   <wgt id='1011'>  +0.0000000e+00 </wgt>
   <wgt id='1012'>  +0.0000000e+00 </wgt>
   <wgt id='1013'>  +0.0000000e+00 </wgt>
   <wgt id='1014'>  +0.0000000e+00 </wgt>
   <wgt id='1015'>  +0.0000000e+00 </wgt>
   <wgt id='1016'>  +0.0000000e+00 </wgt>
   <wgt id='1017'>  +0.0000000e+00 </wgt>
   <wgt id='1018'>  +0.0000000e+00 </wgt>
   <wgt id='1019'>  +5.7119735e+00 </wgt>
   <wgt id='1020'>  +5.2180718e+00 </wgt>
   <wgt id='1021'>  +6.3115702e+00 </wgt>
   <wgt id='1022'>  +5.5361445e+00 </wgt>
   <wgt id='1023'>  +5.0575537e+00 </wgt>
   <wgt id='1024'>  +6.1174668e+00 </wgt>
   <wgt id='1025'>  +5.7974185e+00 </wgt>
   <wgt id='1026'>  +5.2966022e+00 </wgt>
   <wgt id='1027'>  +6.4059055e+00 </wgt>
</rwgt>
</event> 
<event>
  9      0 +5.7119646e+00 9.24027350e+01 7.54677110e-03 1.08105930e-01
        2 -1    0    0  501    0 +0.00000000000e+00 +0.00000000000e+00 +3.55303413359e+02  3.55303557461e+02  3.20000000000e-01 0.0000e+00 -1.0000e+00
       21 -1    0    0  502  501 +0.00000000000e+00 +0.00000000000e+00 -2.40822509408e+02  2.40823677278e+02  7.50000000000e-01 0.0000e+00 -1.0000e+00
       24  2    1    2    0    0 +5.95328188346e+00 -1.12094752668e+02 +2.88492187356e+02  3.19960457870e+02  8.09090680610e+01 0.0000e+00 0.0000e+00
      -13  1    3    3    0    0 +1.58057247381e+01 +1.09040161477e+00 +8.91376380195e+00  1.81790059934e+01  1.05658000000e-01 0.0000e+00 1.0000e+00
       14  1    3    3    0    0 -9.85244285464e+00 -1.13185154282e+02 +2.79578423554e+02  3.01781451877e+02  0.00000000000e+00 0.0000e+00 -1.0000e+00
      -24  2    1    2    0    0 +2.12182230895e+01 -1.65139195440e+01 -7.30728282595e+01  1.10434597200e+02  7.83150017500e+01 0.0000e+00 0.0000e+00
       11  1    6    6    0    0 +3.67859638234e+01 -1.66932216766e+01 -8.27636800215e+01  9.20961319238e+01  5.10999000000e-04 0.0000e+00 -1.0000e+00
      -12  1    6    6    0    0 -1.55677407340e+01 +1.79302132518e-01 +9.69085176199e+00  1.83384652762e+01  0.00000000000e+00 0.0000e+00 1.0000e+00
        2  1    1    2  502    0 -2.71715049729e+01 +1.28608672212e+02 -1.00938455146e+02  1.65732179669e+02  3.20000000000e-01 0.0000e+00 -1.0000e+00
#aMCatNLO 2  0  0  2  1 0.13144764E+03 0.00000000E+00  9  5  0 0.00000000E+00 0.00000000E+00 0.00000000E+00 0.00000000E+00 0.00000000E+00
  <rwgt>
   <wgt id='1001'>  +5.7119735e+00 </wgt>
   <wgt id='1002'>  +5.2151084e+00 </wgt>
   <wgt id='1003'>  +6.3155214e+00 </wgt>
   <wgt id='1004'>  +5.4818153e+00 </wgt>
   <wgt id='1005'>  +5.0052001e+00 </wgt>
   <wgt id='1006'>  +6.0611620e+00 </wgt>
   <wgt id='1007'>  +5.8912598e+00 </wgt>
   <wgt id='1008'>  +5.3790838e+00 </wgt>
   <wgt id='1009'>  +6.5140699e+00 </wgt>
   <wgt id='1010'>  +0.0000000e+00 </wgt>
   <wgt id='1011'>  +0.0000000e+00 </wgt>
   <wgt id='1012'>  +0.0000000e+00 </wgt>
   <wgt id='1013'>  +0.0000000e+00 </wgt>
   <wgt id='1014'>  +0.0000000e+00 </wgt>
   <wgt id='1015'>  +0.0000000e+00 </wgt>
   <wgt id='1016'>  +0.0000000e+00 </wgt>
   <wgt id='1017'>  +0.0000000e+00 </wgt>
   <wgt id='1018'>  +0.0000000e+00 </wgt>
   <wgt id='1019'>  +5.7119735e+00 </wgt>
   <wgt id='1020'>  +5.2151084e+00 </wgt>
   <wgt id='1021'>  +6.3155214e+00 </wgt>
   <wgt id='1022'>  +5.4818153e+00 </wgt>
   <wgt id='1023'>  +5.0052001e+00 </wgt>
   <wgt id='1024'>  +6.0611620e+00 </wgt>
   <wgt id='1025'>  +5.8912598e+00 </wgt>
   <wgt id='1026'>  +5.3790838e+00 </wgt>
   <wgt id='1027'>  +6.5140699e+00 </wgt>
</rwgt>
</event> 
<event>
  8      0 +5.7119646e+00 8.89233150e+01 7.54677110e-03 1.13752450e-01
       -2 -1    0    0    0  501 +0.00000000000e+00 +0.00000000000e+00 +3.72914192117e+01  3.72927921565e+01  3.20000000000e-01 0.0000e+00 1.0000e+00
        2 -1    0    0  501    0 +0.00000000000e+00 +0.00000000000e+00 -5.16951359197e+02  5.16951458239e+02  3.20000000000e-01 0.0000e+00 -1.0000e+00
       24  2    1    2    0    0 +3.16509726402e+01 +2.09243911497e+01 -4.53187663441e+02  4.61926818942e+02  8.09797107218e+01 0.0000e+00 0.0000e+00
      -11  1    3    3    0    0 +1.01284765186e+01 -3.07658247629e+01 -1.33522182265e+02  1.37394669355e+02  5.10999000000e-04 0.0000e+00 1.0000e+00
       12  1    3    3    0    0 +2.15224961215e+01 +5.16902159126e+01 -3.19665481176e+02  3.24532149587e+02  0.00000000000e+00 0.0000e+00 -1.0000e+00
      -24  2    1    2    0    0 -3.16509726402e+01 -2.09243911497e+01 -2.64722765442e+01  9.23174314537e+01  7.98881249669e+01 0.0000e+00 0.0000e+00
       13  1    6    6    0    0 +2.90322078250e+00 -2.17880103260e-01 -4.70103762087e+01  4.71005604802e+01  1.05658000000e-01 0.0000e+00 -1.0000e+00
      -14  1    6    6    0    0 -3.45541934227e+01 -2.07065110464e+01 +2.05380996646e+01  4.52168709735e+01  0.00000000000e+00 0.0000e+00 1.0000e+00
#aMCatNLO 1  0  0  2  2 0.59615584E+02 0.00000000E+00  9  5  0 0.00000000E+00 0.00000000E+00 0.00000000E+00 0.00000000E+00 0.00000000E+00
  <rwgt>
   <wgt id='1001'>  +5.7114796e+00 </wgt>
   <wgt id='1002'>  +5.6867845e+00 </wgt>
   <wgt id='1003'>  +5.7435832e+00 </wgt>
   <wgt id='1004'>  +7.2727030e+00 </wgt>
   <wgt id='1005'>  +7.1260142e+00 </wgt>
   <wgt id='1006'>  +7.4544588e+00 </wgt>
   <wgt id='1007'>  +4.3244060e+00 </wgt>
   <wgt id='1008'>  +4.3975528e+00 </wgt>
   <wgt id='1009'>  +4.2334787e+00 </wgt>
   <wgt id='1010'>  +5.4487239e+00 </wgt>
   <wgt id='1011'>  +5.4487239e+00 </wgt>
   <wgt id='1012'>  +5.4487239e+00 </wgt>
   <wgt id='1013'>  +5.7406198e+00 </wgt>
   <wgt id='1014'>  +5.7406198e+00 </wgt>
   <wgt id='1015'>  +5.7406198e+00 </wgt>
   <wgt id='1016'>  +5.0901512e+00 </wgt>
   <wgt id='1017'>  +5.0901512e+00 </wgt>
   <wgt id='1018'>  +5.0901512e+00 </wgt>
   <wgt id='1019'>  +2.6336816e-01 </wgt>
   <wgt id='1020'>  +2.3820387e-01 </wgt>
   <wgt id='1021'>  +2.9464696e-01 </wgt>
   <wgt id='1022'>  +1.5318856e+00 </wgt>
   <wgt id='1023'>  +1.3854931e+00 </wgt>
   <wgt id='1024'>  +1.7137896e+00 </wgt>
   <wgt id='1025'>  -7.6549829e-01 </wgt>
   <wgt id='1026'>  -6.9240084e-01 </wgt>
   <wgt id='1027'>  -8.5642560e-01 </wgt>
</rwgt>
</event> 
<event>
  8      0 +5.7119646e+00 1.64787970e+02 7.54677110e-03 1.00500830e-01
        2 -1    0    0  501    0 +0.00000000000e+00 +0.00000000000e+00 +1.56168329751e+03  1.56168333029e+03  3.20000000000e-01 0.0000e+00 -1.0000e+00
       -2 -1    0    0    0  501 +0.00000000000e+00 +0.00000000000e+00 -6.99729011561e+01  6.99736328642e+01  3.20000000000e-01 0.0000e+00 1.0000e+00
       24  2    1    2    0    0 -1.42362446355e+02 +2.08917543172e+01 +1.45394470165e+03  1.46326004688e+03  8.04440042126e+01 0.0000e+00 0.0000e+00
      -13  1    3    3    0    0 -8.73923330473e+00 +1.04818565884e+01 +2.92757929785e+01  3.23005686394e+01  1.05658000000e-01 0.0000e+00 1.0000e+00
       14  1    3    3    0    0 -1.33623213050e+02 +1.04098977288e+01 +1.42466890867e+03  1.43095947824e+03  0.00000000000e+00 0.0000e+00 -1.0000e+00
      -24  2    1    2    0    0 +1.42362446355e+02 -2.08917543172e+01 +3.77656947054e+01  1.68396916279e+02  7.89160451686e+01 0.0000e+00 0.0000e+00
       11  1    6    6    0    0 +7.66445879570e+01 +9.02408403422e+00 +5.42483074294e+01  9.43329519043e+01  5.10999000000e-04 0.0000e+00 -1.0000e+00
      -12  1    6    6    0    0 +6.57178583980e+01 -2.99158383514e+01 -1.64826127241e+01  7.40639643747e+01  0.00000000000e+00 0.0000e+00 1.0000e+00
#aMCatNLO 1  0  0  1  1 0.22022503E+03 0.00000000E+00  9  5  0 0.00000000E+00 0.00000000E+00 0.00000000E+00 0.00000000E+00 0.00000000E+00
  <rwgt>
   <wgt id='1001'>  +5.7119735e+00 </wgt>
   <wgt id='1002'>  +5.5381201e+00 </wgt>
   <wgt id='1003'>  +5.9238574e+00 </wgt>
   <wgt id='1004'>  +6.8197951e+00 </wgt>
   <wgt id='1005'>  +6.5432101e+00 </wgt>
   <wgt id='1006'>  +7.1566361e+00 </wgt>
   <wgt id='1007'>  +4.5786172e+00 </wgt>
   <wgt id='1008'>  +4.5083350e+00 </wgt>
   <wgt id='1009'>  +4.6640622e+00 </wgt>
   <wgt id='1010'>  +3.7323660e+00 </wgt>
   <wgt id='1011'>  +3.7323660e+00 </wgt>
   <wgt id='1012'>  +3.7323660e+00 </wgt>
   <wgt id='1013'>  +3.6689490e+00 </wgt>
   <wgt id='1014'>  +3.6689490e+00 </wgt>
   <wgt id='1015'>  +3.6689490e+00 </wgt>
   <wgt id='1016'>  +3.7792373e+00 </wgt>
   <wgt id='1017'>  +3.7792373e+00 </wgt>
   <wgt id='1018'>  +3.7792373e+00 </wgt>
   <wgt id='1019'>  +1.9796075e+00 </wgt>
   <wgt id='1020'>  +1.8059023e+00 </wgt>
   <wgt id='1021'>  +2.1913432e+00 </wgt>
   <wgt id='1022'>  +3.1505004e+00 </wgt>
   <wgt id='1023'>  +2.8740636e+00 </wgt>
   <wgt id='1024'>  +3.4874895e+00 </wgt>
   <wgt id='1025'>  +7.9933056e-01 </wgt>
   <wgt id='1026'>  +7.2914713e-01 </wgt>
   <wgt id='1027'>  +8.8477556e-01 </wgt>
</rwgt>
</event> 
<event>
  8      0 +5.7119646e+00 8.43177850e+01 7.54677110e-03 1.15143490e-01
       -1 -1    0    0    0  501 +0.00000000000e+00 +0.00000000000e+00 +1.44284140911e+02  1.44284495765e+02  3.20000000000e-01 0.0000e+00 1.0000e+00
        1 -1    0    0  501    0 +0.00000000000e+00 +0.00000000000e+00 -4.96363564736e+01  4.96373879648e+01  3.20000000000e-01 0.0000e+00 -1.0000e+00
       24  2    1    2    0    0 -1.18016588363e+01 -2.20523235263e+01 +5.61466400884e+01  1.02303653697e+02  8.17802435939e+01 0.0000e+00 0.0000e+00
      -13  1    3    3    0    0 +7.25620486085e+00 +5.70920676111e+00 +6.64505094859e+01  6.70889627686e+01  1.05658000000e-01 0.0000e+00 1.0000e+00
       14  1    3    3    0    0 -1.90578636971e+01 -2.77615302874e+01 -1.03038693975e+01  3.52146909280e+01  0.00000000000e+00 0.0000e+00 -1.0000e+00
      -24  2    1    2    0    0 +1.18016588363e+01 +2.20523235263e+01 +3.85011443485e+01  9.16182300336e+01  7.92841587844e+01 0.0000e+00 0.0000e+00
       13  1    6    6    0    0 +1.54772698941e+01 -2.80479793518e+01 +8.64623226233e+00  3.31813731639e+01  1.05658000000e-01 0.0000e+00 -1.0000e+00
      -14  1    6    6    0    0 -3.67561105785e+00 +5.01003028782e+01 +2.98549120862e+01  5.84368568697e+01  0.00000000000e+00 0.0000e+00 1.0000e+00
#aMCatNLO 1  0  0  2  1 0.51117021E+02 0.00000000E+00  9  5  0 0.00000000E+00 0.00000000E+00 0.00000000E+00 0.00000000E+00 0.00000000E+00
  <rwgt>
   <wgt id='1001'>  +5.7119735e+00 </wgt>
   <wgt id='1002'>  +5.6487541e+00 </wgt>
   <wgt id='1003'>  +5.7909978e+00 </wgt>
   <wgt id='1004'>  +6.1021559e+00 </wgt>
   <wgt id='1005'>  +6.0384426e+00 </wgt>
   <wgt id='1006'>  +6.1816741e+00 </wgt>
   <wgt id='1007'>  +5.2402974e+00 </wgt>
   <wgt id='1008'>  +5.1790536e+00 </wgt>
   <wgt id='1009'>  +5.3163582e+00 </wgt>
   <wgt id='1010'>  +5.0555781e+00 </wgt>
   <wgt id='1011'>  +5.0555781e+00 </wgt>
   <wgt id='1012'>  +5.0555781e+00 </wgt>
   <wgt id='1013'>  +5.4393398e+00 </wgt>
   <wgt id='1014'>  +5.4393398e+00 </wgt>
   <wgt id='1015'>  +5.4393398e+00 </wgt>
   <wgt id='1016'>  +4.6047446e+00 </wgt>
   <wgt id='1017'>  +4.6047446e+00 </wgt>
   <wgt id='1018'>  +4.6047446e+00 </wgt>
   <wgt id='1019'>  +6.5674113e-01 </wgt>
   <wgt id='1020'>  +5.9352171e-01 </wgt>
   <wgt id='1021'>  +7.3546907e-01 </wgt>
   <wgt id='1022'>  +6.6281612e-01 </wgt>
   <wgt id='1023'>  +5.9900402e-01 </wgt>
   <wgt id='1024'>  +7.4223552e-01 </wgt>
   <wgt id='1025'>  +6.3535519e-01 </wgt>
   <wgt id='1026'>  +5.7416076e-01 </wgt>
   <wgt id='1027'>  +7.1146544e-01 </wgt>
</rwgt>
</event> 
<event>
  8      0 +5.7119646e+00 8.32179160e+01 7.54677110e-03 1.09658430e-01
        2 -1    0    0  501    0 +0.00000000000e+00 +0.00000000000e+00 +2.36012150251e+02  2.36012367189e+02  3.20000000000e-01 0.0000e+00 -1.0000e+00
       -2 -1    0    0    0  501 +0.00000000000e+00 +0.00000000000e+00 -3.23656828835e+01  3.23672647673e+01  3.20000000000e-01 0.0000e+00 1.0000e+00
       24  2    1    2    0    0 +2.42391024544e+00 +1.98482243175e+01 +1.41747990731e+02  1.64284507871e+02  8.06044620397e+01 0.0000e+00 0.0000e+00
      -13  1    3    3    0    0 -3.60982213169e+01 +4.90686264218e+00 +9.57905441201e+01  1.02484137259e+02  1.05658000000e-01 0.0000e+00 1.0000e+00
       14  1    3    3    0    0 +3.85221315624e+01 +1.49413616754e+01 +4.59574466113e+01  6.18003706126e+01  0.00000000000e+00 0.0000e+00 -1.0000e+00
      -24  2    1    2    0    0 -2.42391024544e+00 -1.98482243175e+01 +6.18984766361e+01  1.04095124085e+02  8.12683585347e+01 0.0000e+00 0.0000e+00
       11  1    6    6    0    0 -3.05372620269e+01 +1.81162644338e+01 +3.43813702110e+01  4.94247106920e+01  5.10999000000e-04 0.0000e+00 -1.0000e+00
      -12  1    6    6    0    0 +2.81133517815e+01 -3.79644887513e+01 +2.75171064250e+01  5.46704133929e+01  0.00000000000e+00 0.0000e+00 1.0000e+00
#aMCatNLO 1  0  0  2  1 0.11652876E+03 0.00000000E+00  9  5  0 0.00000000E+00 0.00000000E+00 0.00000000E+00 0.00000000E+00 0.00000000E+00
  <rwgt>
   <wgt id='1001'>  +5.7119735e+00 </wgt>
   <wgt id='1002'>  +5.5781262e+00 </wgt>
   <wgt id='1003'>  +5.8784184e+00 </wgt>
   <wgt id='1004'>  +4.5279429e+00 </wgt>
   <wgt id='1005'>  +4.5426118e+00 </wgt>
   <wgt id='1006'>  +4.5096685e+00 </wgt>
   <wgt id='1007'>  +6.7254599e+00 </wgt>
   <wgt id='1008'>  +6.4548017e+00 </wgt>
   <wgt id='1009'>  +7.0632887e+00 </wgt>
   <wgt id='1010'>  +4.3254432e+00 </wgt>
   <wgt id='1011'>  +4.3254432e+00 </wgt>
   <wgt id='1012'>  +4.3254432e+00 </wgt>
   <wgt id='1013'>  +4.6802128e+00 </wgt>
   <wgt id='1014'>  +4.6802128e+00 </wgt>
   <wgt id='1015'>  +4.6802128e+00 </wgt>
   <wgt id='1016'>  +3.9175298e+00 </wgt>
   <wgt id='1017'>  +3.9175298e+00 </wgt>
   <wgt id='1018'>  +3.9175298e+00 </wgt>
   <wgt id='1019'>  +1.3864809e+00 </wgt>
   <wgt id='1020'>  +1.2527817e+00 </wgt>
   <wgt id='1021'>  +1.5531234e+00 </wgt>
   <wgt id='1022'>  -1.5231929e-01 </wgt>
   <wgt id='1023'>  -1.3762572e-01 </wgt>
   <wgt id='1024'>  -1.7062823e-01 </wgt>
   <wgt id='1025'>  +2.8080783e+00 </wgt>
   <wgt id='1026'>  +2.5372226e+00 </wgt>
   <wgt id='1027'>  +3.1456107e+00 </wgt>
</rwgt>
</event> 
<event>
  8      0 +5.7119646e+00 4.65948380e+01 7.54677110e-03 1.09929470e-01
       -1 -1    0    0    0  501 +0.00000000000e+00 +0.00000000000e+00 +3.12738635612e+02  3.12738799327e+02  3.20000000000e-01 0.0000e+00 1.0000e+00
        1 -1    0    0  501    0 +0.00000000000e+00 +0.00000000000e+00 -6.69483536966e+01  6.69491184609e+01  3.20000000000e-01 0.0000e+00 -1.0000e+00
       24  2    1    2    0    0 -3.86537180797e+01 +9.08174817964e+01 +2.11552685257e+02  2.46740628087e+02  7.99029035026e+01 0.0000e+00 0.0000e+00
      -13  1    3    3    0    0 +5.87728589683e+00 +6.30803120594e+01 +1.64464366938e+02  1.76244737268e+02  1.05658000000e-01 0.0000e+00 1.0000e+00
       14  1    3    3    0    0 -4.45310039765e+01 +2.77371697370e+01 +4.70883183197e+01  7.04958908189e+01  0.00000000000e+00 0.0000e+00 -1.0000e+00
      -24  2    1    2    0    0 +3.86537180797e+01 -9.08174817964e+01 +3.42375966583e+01  1.32947289701e+02  8.22243509709e+01 0.0000e+00 0.0000e+00
       11  1    6    6    0    0 +5.93539295845e+01 -8.93209096564e+01 +3.27834043916e+01  1.12142166301e+02  5.10999000000e-04 0.0000e+00 -1.0000e+00
      -12  1    6    6    0    0 -2.07002115048e+01 -1.49657213998e+00 +1.45419226673e+00  2.08051233994e+01  0.00000000000e+00 0.0000e+00 1.0000e+00
#aMCatNLO 1  0  0  1  2 0.53494084E+02 0.00000000E+00  9  5  0 0.00000000E+00 0.00000000E+00 0.00000000E+00 0.00000000E+00 0.00000000E+00
  <rwgt>
   <wgt id='1001'>  +5.7119735e+00 </wgt>
   <wgt id='1002'>  +5.6828333e+00 </wgt>
   <wgt id='1003'>  +5.7440771e+00 </wgt>
   <wgt id='1004'>  +7.1754044e+00 </wgt>
   <wgt id='1005'>  +7.0282216e+00 </wgt>
   <wgt id='1006'>  +7.3532090e+00 </wgt>
   <wgt id='1007'>  +4.4131601e+00 </wgt>
   <wgt id='1008'>  +4.4820594e+00 </wgt>
   <wgt id='1009'>  +4.3248999e+00 </wgt>
   <wgt id='1010'>  +5.2447425e+00 </wgt>
   <wgt id='1011'>  +5.2447425e+00 </wgt>
   <wgt id='1012'>  +5.2447425e+00 </wgt>
   <wgt id='1013'>  +5.4092118e+00 </wgt>
   <wgt id='1014'>  +5.4092118e+00 </wgt>
   <wgt id='1015'>  +5.4092118e+00 </wgt>
   <wgt id='1016'>  +5.0279196e+00 </wgt>
   <wgt id='1017'>  +5.0279196e+00 </wgt>
   <wgt id='1018'>  +5.0279196e+00 </wgt>
   <wgt id='1019'>  +4.6691000e-01 </wgt>
   <wgt id='1020'>  +4.3758212e-01 </wgt>
   <wgt id='1021'>  +4.9933465e-01 </wgt>
   <wgt id='1022'>  +1.7664395e+00 </wgt>
   <wgt id='1023'>  +1.6189605e+00 </wgt>
   <wgt id='1024'>  +1.9439478e+00 </wgt>
   <wgt id='1025'>  -6.1475948e-01 </wgt>
   <wgt id='1026'>  -5.4586019e-01 </wgt>
   <wgt id='1027'>  -7.0297033e-01 </wgt>
</rwgt>
</event> 
<event>
  8      0 +5.7119646e+00 8.09730620e+01 7.54677110e-03 1.02070310e-01
       -2 -1    0    0    0  501 +0.00000000000e+00 +0.00000000000e+00 +4.99900535235e+01  4.99910777168e+01  3.20000000000e-01 0.0000e+00 1.0000e+00
        2 -1    0    0  501    0 +0.00000000000e+00 +0.00000000000e+00 -5.66405752008e+02  5.66405842402e+02  3.20000000000e-01 0.0000e+00 -1.0000e+00
       24  2    1    2    0    0 -6.34849715157e-01 +8.50839092511e+00 -5.27831749549e+02  5.34153397529e+02  8.14904933737e+01 0.0000e+00 0.0000e+00
      -13  1    3    3    0    0 +1.82839794341e+01 -2.33740162319e+01 -9.02458196447e+01  9.49998298194e+01  1.05658000000e-01 0.0000e+00 1.0000e+00
       14  1    3    3    0    0 -1.89188291493e+01 +3.18824071570e+01 -4.37585929904e+02  4.39153567710e+02  0.00000000000e+00 0.0000e+00 -1.0000e+00
      -24  2    1    2    0    0 +6.34849715157e-01 -8.50839092511e+00 +1.14160510644e+01  8.22435225897e+01  8.09992286122e+01 0.0000e+00 0.0000e+00
       11  1    6    6    0    0 +7.14314185353e+00 +1.10418574069e+01 +4.27581763984e+01  4.47348716295e+01  5.10999000000e-04 0.0000e+00 -1.0000e+00
      -12  1    6    6    0    0 -6.50829213837e+00 -1.95502483320e+01 -3.13421253340e+01  3.75086509602e+01  0.00000000000e+00 0.0000e+00 1.0000e+00
#aMCatNLO 1  0  0  2  2 0.24822562E+03 0.00000000E+00  9  5  0 0.00000000E+00 0.00000000E+00 0.00000000E+00 0.00000000E+00 0.00000000E+00
  <rwgt>
   <wgt id='1001'>  +5.7114796e+00 </wgt>
   <wgt id='1002'>  +5.5603457e+00 </wgt>
   <wgt id='1003'>  +5.9016318e+00 </wgt>
   <wgt id='1004'>  +5.3558704e+00 </wgt>
   <wgt id='1005'>  +5.2561022e+00 </wgt>
   <wgt id='1006'>  +5.4803336e+00 </wgt>
   <wgt id='1007'>  +6.0117719e+00 </wgt>
   <wgt id='1008'>  +5.8087783e+00 </wgt>
   <wgt id='1009'>  +6.2656374e+00 </wgt>
   <wgt id='1010'>  +4.1446258e+00 </wgt>
   <wgt id='1011'>  +4.1446258e+00 </wgt>
   <wgt id='1012'>  +4.1446258e+00 </wgt>
   <wgt id='1013'>  +4.3256408e+00 </wgt>
   <wgt id='1014'>  +4.3256408e+00 </wgt>
   <wgt id='1015'>  +4.3256408e+00 </wgt>
   <wgt id='1016'>  +3.9126895e+00 </wgt>
   <wgt id='1017'>  +3.9126895e+00 </wgt>
   <wgt id='1018'>  +3.9126895e+00 </wgt>
   <wgt id='1019'>  +1.5672984e+00 </wgt>
   <wgt id='1020'>  +1.4155224e+00 </wgt>
   <wgt id='1021'>  +1.7566109e+00 </wgt>
   <wgt id='1022'>  +1.0304766e+00 </wgt>
   <wgt id='1023'>  +9.3060964e-01 </wgt>
   <wgt id='1024'>  +1.1548904e+00 </wgt>
   <wgt id='1025'>  +2.0990330e+00 </wgt>
   <wgt id='1026'>  +1.8956936e+00 </wgt>
   <wgt id='1027'>  +2.3525033e+00 </wgt>
</rwgt>
</event> 
<event>
  8      0 +5.7119646e+00 5.56585520e+01 7.54677110e-03 1.10921000e-01
       -1 -1    0    0    0  501 +0.00000000000e+00 +0.00000000000e+00 +8.18471825829e+02  8.18471888384e+02  3.20000000000e-01 0.0000e+00 1.0000e+00
        1 -1    0    0  501    0 +0.00000000000e+00 +0.00000000000e+00 -2.48306553364e+01  2.48327172181e+01  3.20000000000e-01 0.0000e+00 -1.0000e+00
       24  2    1    2    0    0 -8.69477827715e+01 -1.75821507490e+00 +6.30760453375e+02  6.41613237593e+02  7.90303034498e+01 0.0000e+00 0.0000e+00
      -13  1    3    3    0    0 -9.01519213109e+01 -2.41279125395e+01 +5.44609493507e+02  5.52547768669e+02  1.05658000000e-01 0.0000e+00 1.0000e+00
       14  1    3    3    0    0 +3.20413853936e+00 +2.23696974646e+01 +8.61509598685e+01  8.90654689243e+01  0.00000000000e+00 0.0000e+00 -1.0000e+00
      -24  2    1    2    0    0 +8.69477827715e+01 +1.75821507490e+00 +1.62880717117e+02  2.01691368009e+02  8.11558480443e+01 0.0000e+00 0.0000e+00
       13  1    6    6    0    0 +8.58376826171e+01 -1.81691865540e+01 +1.58641133161e+02  1.81287747494e+02  1.05658000000e-01 0.0000e+00 -1.0000e+00
      -14  1    6    6    0    0 +1.11010015439e+00 +1.99274016289e+01 +4.23958395614e+00  2.04036205158e+01  0.00000000000e+00 0.0000e+00 1.0000e+00
#aMCatNLO 1  0  0  2  1 0.52665059E+02 0.00000000E+00  9  5  0 0.00000000E+00 0.00000000E+00 0.00000000E+00 0.00000000E+00 0.00000000E+00
  <rwgt>
   <wgt id='1001'>  +5.7119735e+00 </wgt>
   <wgt id='1002'>  +5.5998578e+00 </wgt>
   <wgt id='1003'>  +5.8468087e+00 </wgt>
   <wgt id='1004'>  +5.6487541e+00 </wgt>
   <wgt id='1005'>  +5.5494799e+00 </wgt>
   <wgt id='1006'>  +5.7682783e+00 </wgt>
   <wgt id='1007'>  +5.8255709e+00 </wgt>
   <wgt id='1008'>  +5.6927114e+00 </wgt>
   <wgt id='1009'>  +5.9865829e+00 </wgt>
   <wgt id='1010'>  +4.3956266e+00 </wgt>
   <wgt id='1011'>  +4.3956266e+00 </wgt>
   <wgt id='1012'>  +4.3956266e+00 </wgt>
   <wgt id='1013'>  +4.4693168e+00 </wgt>
   <wgt id='1014'>  +4.4693168e+00 </wgt>
   <wgt id='1015'>  +4.4693168e+00 </wgt>
   <wgt id='1016'>  +4.2808439e+00 </wgt>
   <wgt id='1017'>  +4.2808439e+00 </wgt>
   <wgt id='1018'>  +4.2808439e+00 </wgt>
   <wgt id='1019'>  +1.3163469e+00 </wgt>
   <wgt id='1020'>  +1.2045769e+00 </wgt>
   <wgt id='1021'>  +1.4515278e+00 </wgt>
   <wgt id='1022'>  +1.1794867e+00 </wgt>
   <wgt id='1023'>  +1.0802619e+00 </wgt>
   <wgt id='1024'>  +1.2991591e+00 </wgt>
   <wgt id='1025'>  +1.5448752e+00 </wgt>
   <wgt id='1026'>  +1.4119663e+00 </wgt>
   <wgt id='1027'>  +1.7059860e+00 </wgt>
</rwgt>
</event> 
<event>
  9      0 +5.7119646e+00 8.24011860e+01 7.54677110e-03 1.15889240e-01
       -2 -1    0    0    0  501 +0.00000000000e+00 +0.00000000000e+00 +1.28556655459e+02  1.28557053726e+02  3.20000000000e-01 0.0000e+00 1.0000e+00
       21 -1    0    0  501  502 +0.00000000000e+00 +0.00000000000e+00 -2.25988033187e+02  2.25989277719e+02  7.50000000000e-01 0.0000e+00 1.0000e+00
       24  2    1    2    0    0 -2.41377194043e+01 +2.82046534486e+01 -1.67001971596e+02  1.87698164654e+02  7.72192367450e+01 0.0000e+00 0.0000e+00
      -11  1    3    3    0    0 -2.13559528917e+01 +3.97073933551e+01 -1.69677305718e+02  1.75565206938e+02  5.10999000000e-04 0.0000e+00 1.0000e+00
       12  1    3    3    0    0 -2.78176651256e+00 -1.15027399065e+01 +2.67533412250e+00  1.21329577166e+01  0.00000000000e+00 0.0000e+00 -1.0000e+00
      -24  2    1    2    0    0 -1.75632774726e+01 -7.32954647352e+00 +2.24057214055e-01  8.32791068609e+01  8.10750792218e+01 0.0000e+00 0.0000e+00
       13  1    6    6    0    0 -1.78584219961e+01 +3.58703200620e+01 -4.62176658563e-01  4.00727821398e+01  1.05658000000e-01 0.0000e+00 -1.0000e+00
      -14  1    6    6    0    0 +2.95144523514e-01 -4.31998665356e+01 +6.86233872618e-01  4.32063247211e+01  0.00000000000e+00 0.0000e+00 1.0000e+00
       -2  1    1    2    0  502 +4.17009968769e+01 -2.08751069751e+01 +6.93465366532e+01  8.35690599297e+01  3.20000000000e-01 0.0000e+00 1.0000e+00
#aMCatNLO 2  0  0  2  1 0.46410444E+02 0.00000000E+00  9  5  0 0.00000000E+00 0.00000000E+00 0.00000000E+00 0.00000000E+00 0.00000000E+00
  <rwgt>
   <wgt id='1001'>  +5.7119735e+00 </wgt>
   <wgt id='1002'>  +5.1815231e+00 </wgt>
   <wgt id='1003'>  +6.3663933e+00 </wgt>
   <wgt id='1004'>  +5.6749309e+00 </wgt>
   <wgt id='1005'>  +5.1479377e+00 </wgt>
   <wgt id='1006'>  +6.3253995e+00 </wgt>
   <wgt id='1007'>  +5.6724614e+00 </wgt>
   <wgt id='1008'>  +5.1459621e+00 </wgt>
   <wgt id='1009'>  +6.3229300e+00 </wgt>
   <wgt id='1010'>  +0.0000000e+00 </wgt>
   <wgt id='1011'>  +0.0000000e+00 </wgt>
   <wgt id='1012'>  +0.0000000e+00 </wgt>
   <wgt id='1013'>  +0.0000000e+00 </wgt>
   <wgt id='1014'>  +0.0000000e+00 </wgt>
   <wgt id='1015'>  +0.0000000e+00 </wgt>
   <wgt id='1016'>  +0.0000000e+00 </wgt>
   <wgt id='1017'>  +0.0000000e+00 </wgt>
   <wgt id='1018'>  +0.0000000e+00 </wgt>
   <wgt id='1019'>  +5.7119735e+00 </wgt>
   <wgt id='1020'>  +5.1815231e+00 </wgt>
   <wgt id='1021'>  +6.3663933e+00 </wgt>
   <wgt id='1022'>  +5.6749309e+00 </wgt>
   <wgt id='1023'>  +5.1479377e+00 </wgt>
   <wgt id='1024'>  +6.3253995e+00 </wgt>
   <wgt id='1025'>  +5.6724614e+00 </wgt>
   <wgt id='1026'>  +5.1459621e+00 </wgt>
   <wgt id='1027'>  +6.3229300e+00 </wgt>
</rwgt>
</event> 
<event>
  8      0 -5.7119646e+00 6.54702940e+01 7.54677110e-03 1.17956500e-01
        2 -1    0    0  501    0 +0.00000000000e+00 +0.00000000000e+00 +1.23818979225e+03  1.23818983360e+03  3.20000000000e-01 0.0000e+00 -1.0000e+00
       -2 -1    0    0    0  501 +0.00000000000e+00 +0.00000000000e+00 -8.86885300144e+00  8.87462413633e+00  3.20000000000e-01 0.0000e+00 1.0000e+00
       24  2    1    2    0    0 +7.41834157246e+00 +5.38399867902e+01 +8.88556518724e+02  8.93720537909e+02  7.90565426992e+01 0.0000e+00 0.0000e+00
      -13  1    3    3    0    0 +3.18580989443e+01 +6.09259568178e+01 +5.65662229685e+02  5.69825131017e+02  1.05658000000e-01 0.0000e+00 1.0000e+00
       14  1    3    3    0    0 -2.44397573718e+01 -7.08597002759e+00 +3.22894289039e+02  3.23895406892e+02  0.00000000000e+00 0.0000e+00 -1.0000e+00
      -24  2    1    2    0    0 -7.41834157246e+00 -5.38399867902e+01 +3.40764420524e+02  3.53343919828e+02  7.60115742172e+01 0.0000e+00 0.0000e+00
       11  1    6    6    0    0 -3.97019690762e+01 -1.49397318059e+01 +1.73283832834e+02  1.78400472692e+02  5.10999000000e-04 0.0000e+00 -1.0000e+00
      -12  1    6    6    0    0 +3.22836275038e+01 -3.89002549843e+01 +1.67480587690e+02  1.74943447136e+02  0.00000000000e+00 0.0000e+00 1.0000e+00
#aMCatNLO 1  0  0  2  1 0.19666002E+01 0.00000000E+00  9  5  0 0.00000000E+00 0.00000000E+00 0.00000000E+00 0.00000000E+00 0.00000000E+00
  <rwgt>
   <wgt id='1001'>  -5.7119735e+00 </wgt>
   <wgt id='1002'>  -4.8079358e+00 </wgt>
   <wgt id='1003'>  -6.8351061e+00 </wgt>
   <wgt id='1004'>  -8.1370310e+00 </wgt>
   <wgt id='1005'>  -6.9852522e+00 </wgt>
   <wgt id='1006'>  -9.5678643e+00 </wgt>
   <wgt id='1007'>  -3.2934355e+00 </wgt>
   <wgt id='1008'>  -2.6412383e+00 </wgt>
   <wgt id='1009'>  -4.1045209e+00 </wgt>
   <wgt id='1010'>  +3.7549867e+00 </wgt>
   <wgt id='1011'>  +3.7549867e+00 </wgt>
   <wgt id='1012'>  +3.7549867e+00 </wgt>
   <wgt id='1013'>  +3.9487937e+00 </wgt>
   <wgt id='1014'>  +3.9487937e+00 </wgt>
   <wgt id='1015'>  +3.9487937e+00 </wgt>
   <wgt id='1016'>  +3.5180620e+00 </wgt>
   <wgt id='1017'>  +3.5180620e+00 </wgt>
   <wgt id='1018'>  +3.5180620e+00 </wgt>
   <wgt id='1019'>  -9.4666145e+00 </wgt>
   <wgt id='1020'>  -8.5632682e+00 </wgt>
   <wgt id='1021'>  -1.0590241e+01 </wgt>
   <wgt id='1022'>  -1.2085775e+01 </wgt>
   <wgt id='1023'>  -1.0933997e+01 </wgt>
   <wgt id='1024'>  -1.3516609e+01 </wgt>
   <wgt id='1025'>  -6.8118927e+00 </wgt>
   <wgt id='1026'>  -6.1589546e+00 </wgt>
   <wgt id='1027'>  -7.6223854e+00 </wgt>
</rwgt>
</event> 
<event>
  9      0 +5.7119646e+00 9.82702970e+01 7.54677110e-03 1.07825540e-01
        4 -1    0    0  501    0 +0.00000000000e+00 +0.00000000000e+00 +5.78639437796e+02  5.78641513782e+02  1.55000000000e+00 0.0000e+00 -1.0000e+00
       21 -1    0    0  502  501 +0.00000000000e+00 +0.00000000000e+00 -8.72571510144e+01  8.72603741864e+01  7.50000000000e-01 0.0000e+00 -1.0000e+00
       24  2    1    2    0    0 -5.42699841138e+00 +4.26186441871e+00 +3.04023535407e+02  3.14547637604e+02  8.03883725482e+01 0.0000e+00 0.0000e+00
      -13  1    3    3    0    0 -3.31572519864e+01 +2.68706184650e+01 +2.01212183103e+02  2.05688568687e+02  1.05658000000e-01 0.0000e+00 1.0000e+00
       14  1    3    3    0    0 +2.77302535750e+01 -2.26087540463e+01 +1.02811352304e+02  1.08859068917e+02  0.00000000000e+00 0.0000e+00 -1.0000e+00
      -24  2    1    2    0    0 +8.52033636504e+01 +9.66673681457e+01 +1.58769934718e+02  2.19556293724e+02  7.99554920059e+01 0.0000e+00 0.0000e+00
       11  1    6    6    0    0 +6.48961078483e+01 +1.09645884510e+02 +1.30016909712e+02  1.82038791512e+02  5.10999000000e-04 0.0000e+00 -1.0000e+00
      -12  1    6    6    0    0 +2.03072558021e+01 -1.29785163643e+01 +2.87530250062e+01  3.75175022121e+01  0.00000000000e+00 0.0000e+00 1.0000e+00
        4  1    1    2  502    0 -7.97763652390e+01 -1.00929232564e+02 +2.85888166560e+01  1.31797956640e+02  1.55000000000e+00 0.0000e+00 -1.0000e+00
#aMCatNLO 2  0  0  2  1 0.12865061E+03 0.00000000E+00  9  5  0 0.00000000E+00 0.00000000E+00 0.00000000E+00 0.00000000E+00 0.00000000E+00
  <rwgt>
   <wgt id='1001'>  +5.7119735e+00 </wgt>
   <wgt id='1002'>  +5.2165901e+00 </wgt>
   <wgt id='1003'>  +6.3140397e+00 </wgt>
   <wgt id='1004'>  +5.7416076e+00 </wgt>
   <wgt id='1005'>  +5.2442486e+00 </wgt>
   <wgt id='1006'>  +6.3471311e+00 </wgt>
   <wgt id='1007'>  +5.5494799e+00 </wgt>
   <wgt id='1008'>  +5.0684196e+00 </wgt>
   <wgt id='1009'>  +6.1342595e+00 </wgt>
   <wgt id='1010'>  +0.0000000e+00 </wgt>
   <wgt id='1011'>  +0.0000000e+00 </wgt>
   <wgt id='1012'>  +0.0000000e+00 </wgt>
   <wgt id='1013'>  +0.0000000e+00 </wgt>
   <wgt id='1014'>  +0.0000000e+00 </wgt>
   <wgt id='1015'>  +0.0000000e+00 </wgt>
   <wgt id='1016'>  +0.0000000e+00 </wgt>
   <wgt id='1017'>  +0.0000000e+00 </wgt>
   <wgt id='1018'>  +0.0000000e+00 </wgt>
   <wgt id='1019'>  +5.7119735e+00 </wgt>
   <wgt id='1020'>  +5.2165901e+00 </wgt>
   <wgt id='1021'>  +6.3140397e+00 </wgt>
   <wgt id='1022'>  +5.7416076e+00 </wgt>
   <wgt id='1023'>  +5.2442486e+00 </wgt>
   <wgt id='1024'>  +6.3471311e+00 </wgt>
   <wgt id='1025'>  +5.5494799e+00 </wgt>
   <wgt id='1026'>  +5.0684196e+00 </wgt>
   <wgt id='1027'>  +6.1342595e+00 </wgt>
</rwgt>
</event> 
<event>
  9      0 +5.7119646e+00 2.54650670e+02 7.54677110e-03 1.02797290e-01
       -2 -1    0    0    0  501 +0.00000000000e+00 +0.00000000000e+00 +3.74898867884e+02  3.74899004454e+02  3.20000000000e-01 0.0000e+00 1.0000e+00
        2 -1    0    0  502    0 +0.00000000000e+00 +0.00000000000e+00 -2.85368621711e+02  2.85368801128e+02  3.20000000000e-01 0.0000e+00 -1.0000e+00
       24  2    1    2    0    0 -1.14205982548e+02 -2.09521669308e+02 +3.38955320749e+01  2.54053221710e+02  8.03230726935e+01 0.0000e+00 0.0000e+00
      -13  1    3    3    0    0 -3.31873189681e+01 -1.08298584593e+02 +4.92110646992e+01  1.23497860782e+02  1.05658000000e-01 0.0000e+00 1.0000e+00
       14  1    3    3    0    0 -8.10186635797e+01 -1.01223084715e+02 -1.53155326243e+01  1.30555360928e+02  0.00000000000e+00 0.0000e+00 -1.0000e+00
      -24  2    1    2    0    0 +1.15659290452e+02 +2.15691153834e+02 +1.58994862352e+02  3.02657559048e+02  8.01404172959e+01 0.0000e+00 0.0000e+00
       13  1    6    6    0    0 +9.88551798545e+00 +9.82419663225e+01 +5.01228132225e+01  1.10731725272e+02  1.05658000000e-01 0.0000e+00 -1.0000e+00
      -14  1    6    6    0    0 +1.05773772467e+02 +1.17449187512e+02 +1.08872049130e+02  1.91925833776e+02  0.00000000000e+00 0.0000e+00 1.0000e+00
       21  1    1    2  502  501 -1.45330790438e+00 -6.16948452601e+00 -1.03360148254e+02  1.03557024823e+02  7.50000000000e-01 0.0000e+00 -1.0000e+00
#aMCatNLO 2  0  0  2  1 0.63383470E+01 0.00000000E+00  9  5  0 0.00000000E+00 0.00000000E+00 0.00000000E+00 0.00000000E+00 0.00000000E+00
  <rwgt>
   <wgt id='1001'>  +5.7119735e+00 </wgt>
   <wgt id='1002'>  +5.2383218e+00 </wgt>
   <wgt id='1003'>  +6.2819361e+00 </wgt>
   <wgt id='1004'>  +5.6309736e+00 </wgt>
   <wgt id='1005'>  +5.1642365e+00 </wgt>
   <wgt id='1006'>  +6.1930338e+00 </wgt>
   <wgt id='1007'>  +5.7737112e+00 </wgt>
   <wgt id='1008'>  +5.2951205e+00 </wgt>
   <wgt id='1009'>  +6.3496007e+00 </wgt>
   <wgt id='1010'>  +0.0000000e+00 </wgt>
   <wgt id='1011'>  +0.0000000e+00 </wgt>
   <wgt id='1012'>  +0.0000000e+00 </wgt>
   <wgt id='1013'>  +0.0000000e+00 </wgt>
   <wgt id='1014'>  +0.0000000e+00 </wgt>
   <wgt id='1015'>  +0.0000000e+00 </wgt>
   <wgt id='1016'>  +0.0000000e+00 </wgt>
   <wgt id='1017'>  +0.0000000e+00 </wgt>
   <wgt id='1018'>  +0.0000000e+00 </wgt>
   <wgt id='1019'>  +5.7119735e+00 </wgt>
   <wgt id='1020'>  +5.2383218e+00 </wgt>
   <wgt id='1021'>  +6.2819361e+00 </wgt>
   <wgt id='1022'>  +5.6309736e+00 </wgt>
   <wgt id='1023'>  +5.1642365e+00 </wgt>
   <wgt id='1024'>  +6.1930338e+00 </wgt>
   <wgt id='1025'>  +5.7737112e+00 </wgt>
   <wgt id='1026'>  +5.2951205e+00 </wgt>
   <wgt id='1027'>  +6.3496007e+00 </wgt>
</rwgt>
</event> 
<event>
  9      0 +5.7119646e+00 1.10946430e+02 7.54677110e-03 1.12071360e-01
       21 -1    0    0  501  502 +0.00000000000e+00 +0.00000000000e+00 +2.21655229933e+01  2.21782079882e+01  7.50000000000e-01 0.0000e+00 1.0000e+00
       -1 -1    0    0    0  501 +0.00000000000e+00 +0.00000000000e+00 -1.09348103492e+03  1.09348108174e+03  3.20000000000e-01 0.0000e+00 1.0000e+00
       24  2    1    2    0    0 -5.45070638541e+01 +3.70516160097e+01 -5.41537812648e+02  5.50920755737e+02  7.68546310572e+01 0.0000e+00 0.0000e+00
      -13  1    3    3    0    0 -3.91330826236e+01 -4.04487015083e+00 -1.04069993695e+02  1.11257960980e+02  1.05658000000e-01 0.0000e+00 1.0000e+00
       14  1    3    3    0    0 -1.53739812306e+01 +4.10964861606e+01 -4.37467818953e+02  4.39662794757e+02  0.00000000000e+00 0.0000e+00 -1.0000e+00
      -24  2    1    2    0    0 +9.50424120857e+01 -1.30181388702e+01 -4.80886110617e+02  4.96832626140e+02  7.99291872701e+01 0.0000e+00 0.0000e+00
       11  1    6    6    0    0 +8.82413341063e+00 -3.28304891088e+01 -9.39243958594e+01  9.98874290558e+01  5.10999000000e-04 0.0000e+00 -1.0000e+00
      -12  1    6    6    0    0 +8.62182786750e+01 +1.98123502386e+01 -3.86961714758e+02  3.96945197084e+02  0.00000000000e+00 0.0000e+00 1.0000e+00
       -1  1    1    2    0  502 -4.05353482315e+01 -2.40334771396e+01 -4.88915886600e+01  6.79059078532e+01  3.20000000000e-01 0.0000e+00 1.0000e+00
#aMCatNLO 2  0  0  1  2 0.47138149E+02 0.00000000E+00  9  5  0 0.00000000E+00 0.00000000E+00 0.00000000E+00 0.00000000E+00 0.00000000E+00
  <rwgt>
   <wgt id='1001'>  +5.7119735e+00 </wgt>
   <wgt id='1002'>  +5.1983157e+00 </wgt>
   <wgt id='1003'>  +6.3416982e+00 </wgt>
   <wgt id='1004'>  +5.6260346e+00 </wgt>
   <wgt id='1005'>  +5.1197853e+00 </wgt>
   <wgt id='1006'>  +6.2458813e+00 </wgt>
   <wgt id='1007'>  +5.6991321e+00 </wgt>
   <wgt id='1008'>  +5.1864621e+00 </wgt>
   <wgt id='1009'>  +6.3273751e+00 </wgt>
   <wgt id='1010'>  +0.0000000e+00 </wgt>
   <wgt id='1011'>  +0.0000000e+00 </wgt>
   <wgt id='1012'>  +0.0000000e+00 </wgt>
   <wgt id='1013'>  +0.0000000e+00 </wgt>
   <wgt id='1014'>  +0.0000000e+00 </wgt>
   <wgt id='1015'>  +0.0000000e+00 </wgt>
   <wgt id='1016'>  +0.0000000e+00 </wgt>
   <wgt id='1017'>  +0.0000000e+00 </wgt>
   <wgt id='1018'>  +0.0000000e+00 </wgt>
   <wgt id='1019'>  +5.7119735e+00 </wgt>
   <wgt id='1020'>  +5.1983157e+00 </wgt>
   <wgt id='1021'>  +6.3416982e+00 </wgt>
   <wgt id='1022'>  +5.6260346e+00 </wgt>
   <wgt id='1023'>  +5.1197853e+00 </wgt>
   <wgt id='1024'>  +6.2458813e+00 </wgt>
   <wgt id='1025'>  +5.6991321e+00 </wgt>
   <wgt id='1026'>  +5.1864621e+00 </wgt>
   <wgt id='1027'>  +6.3273751e+00 </wgt>
</rwgt>
</event> 
<event>
  8      0 +5.7119646e+00 4.51345820e+01 7.54677110e-03 1.18457880e-01
       -2 -1    0    0    0  501 +0.00000000000e+00 +0.00000000000e+00 +8.30537139142e+02  8.30537200789e+02  3.20000000000e-01 0.0000e+00 1.0000e+00
        2 -1    0    0  501    0 +0.00000000000e+00 +0.00000000000e+00 -7.91503725966e+01  7.91510194640e+01  3.20000000000e-01 0.0000e+00 -1.0000e+00
       24  2    1    2    0    0 -2.09470137450e+01 +2.63087233610e+01 -5.35696753320e+01  1.00019033741e+02  7.74801309091e+01 0.0000e+00 0.0000e+00
      -13  1    3    3    0    0 -3.42831370734e+01 -1.29251821706e+00 +4.25602636625e+00  3.45706380470e+01  1.05658000000e-01 0.0000e+00 1.0000e+00
       14  1    3    3    0    0 +1.33361233284e+01 +2.76012415781e+01 -5.78257016982e+01  6.54483956944e+01  0.00000000000e+00 0.0000e+00 -1.0000e+00
      -24  2    1    2    0    0 +2.09470137450e+01 -2.63087233610e+01 +8.04956441878e+02  8.09669186512e+02  8.04884585294e+01 0.0000e+00 0.0000e+00
       13  1    6    6    0    0 +4.00852049137e+01 -3.82382672147e+00 +2.01131063259e+02  2.05122307600e+02  1.05658000000e-01 0.0000e+00 -1.0000e+00
      -14  1    6    6    0    0 -1.91381911687e+01 -2.24848966395e+01 +6.03825378619e+02  6.04546878912e+02  0.00000000000e+00 0.0000e+00 1.0000e+00
#aMCatNLO 1  0  0  1  2 0.13323038E+02 0.00000000E+00  9  5  0 0.00000000E+00 0.00000000E+00 0.00000000E+00 0.00000000E+00 0.00000000E+00
  <rwgt>
   <wgt id='1001'>  +5.7114796e+00 </wgt>
   <wgt id='1002'>  +5.4665044e+00 </wgt>
   <wgt id='1003'>  +6.0112780e+00 </wgt>
   <wgt id='1004'>  +6.5298748e+00 </wgt>
   <wgt id='1005'>  +6.2048874e+00 </wgt>
   <wgt id='1006'>  +6.9284535e+00 </wgt>
   <wgt id='1007'>  +5.0047062e+00 </wgt>
   <wgt id='1008'>  +4.8262595e+00 </wgt>
   <wgt id='1009'>  +5.2205413e+00 </wgt>
   <wgt id='1010'>  +2.9317513e+00 </wgt>
   <wgt id='1011'>  +2.9317513e+00 </wgt>
   <wgt id='1012'>  +2.9317513e+00 </wgt>
   <wgt id='1013'>  +2.9187123e+00 </wgt>
   <wgt id='1014'>  +2.9187123e+00 </wgt>
   <wgt id='1015'>  +2.9187123e+00 </wgt>
   <wgt id='1016'>  +2.9222190e+00 </wgt>
   <wgt id='1017'>  +2.9222190e+00 </wgt>
   <wgt id='1018'>  +2.9222190e+00 </wgt>
   <wgt id='1019'>  +2.7802716e+00 </wgt>
   <wgt id='1020'>  +2.5347037e+00 </wgt>
   <wgt id='1021'>  +3.0792797e+00 </wgt>
   <wgt id='1022'>  +3.6115082e+00 </wgt>
   <wgt id='1023'>  +3.2860270e+00 </wgt>
   <wgt id='1024'>  +4.0101363e+00 </wgt>
   <wgt id='1025'>  +2.0825860e+00 </wgt>
   <wgt id='1026'>  +1.9040406e+00 </wgt>
   <wgt id='1027'>  +2.2982729e+00 </wgt>
</rwgt>
</event> 
<event>
  9      0 +5.7119646e+00 2.37264720e+02 7.54677110e-03 9.90572180e-02
        2 -1    0    0  501    0 +0.00000000000e+00 +0.00000000000e+00 +2.11622821772e+03  2.11622824191e+03  3.20000000000e-01 0.0000e+00 -1.0000e+00
       21 -1    0    0  502  501 +0.00000000000e+00 +0.00000000000e+00 -9.79659838712e+01  9.79688547236e+01  7.50000000000e-01 0.0000e+00 -1.0000e+00
       24  2    1    2    0    0 +2.76805197823e+02 +1.62349437397e+02 +1.58877151193e+03  1.62281211109e+03  7.96603630237e+01 0.0000e+00 0.0000e+00
      -11  1    3    3    0    0 +8.13745862551e+01 +1.00101850744e+01 +4.47768511747e+02  4.55212771356e+02  5.10999000000e-04 0.0000e+00 1.0000e+00
       12  1    3    3    0    0 +1.95430611568e+02 +1.52339252322e+02 +1.14100300018e+03  1.16759933974e+03  0.00000000000e+00 0.0000e+00 -1.0000e+00
      -24  2    1    2    0    0 -9.97327295861e+01 -1.19973014324e+02 +3.51351618500e+02  3.93253104908e+02  8.28245324812e+01 0.0000e+00 0.0000e+00
       11  1    6    6    0    0 -6.03051874922e+01 -8.81350649183e+01 +3.09893837973e+02  3.27778425343e+02  5.10999000000e-04 0.0000e+00 -1.0000e+00
      -12  1    6    6    0    0 -3.94275420939e+01 -3.18379494052e+01 +4.14577805270e+01  6.54746795648e+01  0.00000000000e+00 0.0000e+00 1.0000e+00
        2  1    1    2  502    0 -1.77072468237e+02 -4.23764230733e+01 +7.81391034186e+01  1.98131880632e+02  3.20000000000e-01 0.0000e+00 -1.0000e+00
#aMCatNLO 2  0  0  2  1 0.18333789E+03 0.00000000E+00  9  5  0 0.00000000E+00 0.00000000E+00 0.00000000E+00 0.00000000E+00 0.00000000E+00
  <rwgt>
   <wgt id='1001'>  +5.7119735e+00 </wgt>
   <wgt id='1002'>  +5.2551144e+00 </wgt>
   <wgt id='1003'>  +6.2582288e+00 </wgt>
   <wgt id='1004'>  +5.2936388e+00 </wgt>
   <wgt id='1005'>  +4.8701180e+00 </wgt>
   <wgt id='1006'>  +5.7998880e+00 </wgt>
   <wgt id='1007'>  +6.1658692e+00 </wgt>
   <wgt id='1008'>  +5.6724614e+00 </wgt>
   <wgt id='1009'>  +6.7550940e+00 </wgt>
   <wgt id='1010'>  +0.0000000e+00 </wgt>
   <wgt id='1011'>  +0.0000000e+00 </wgt>
   <wgt id='1012'>  +0.0000000e+00 </wgt>
   <wgt id='1013'>  +0.0000000e+00 </wgt>
   <wgt id='1014'>  +0.0000000e+00 </wgt>
   <wgt id='1015'>  +0.0000000e+00 </wgt>
   <wgt id='1016'>  +0.0000000e+00 </wgt>
   <wgt id='1017'>  +0.0000000e+00 </wgt>
   <wgt id='1018'>  +0.0000000e+00 </wgt>
   <wgt id='1019'>  +5.7119735e+00 </wgt>
   <wgt id='1020'>  +5.2551144e+00 </wgt>
   <wgt id='1021'>  +6.2582288e+00 </wgt>
   <wgt id='1022'>  +5.2936388e+00 </wgt>
   <wgt id='1023'>  +4.8701180e+00 </wgt>
   <wgt id='1024'>  +5.7998880e+00 </wgt>
   <wgt id='1025'>  +6.1658692e+00 </wgt>
   <wgt id='1026'>  +5.6724614e+00 </wgt>
   <wgt id='1027'>  +6.7550940e+00 </wgt>
</rwgt>
</event> 
<event>
  8      0 +5.7119646e+00 9.02049960e+01 7.54677110e-03 1.11061580e-01
        2 -1    0    0  501    0 +0.00000000000e+00 +0.00000000000e+00 +2.40746008849e+03  2.40746010976e+03  3.20000000000e-01 0.0000e+00 -1.0000e+00
       -2 -1    0    0    0  501 +0.00000000000e+00 +0.00000000000e+00 -5.05642950262e+00  5.06654510638e+00  3.20000000000e-01 0.0000e+00 1.0000e+00
       24  2    1    2    0    0 -3.20951380325e+01 -1.50295747689e+01 +1.79787455855e+03  1.80001108430e+03  8.01934492805e+01 0.0000e+00 0.0000e+00
      -11  1    3    3    0    0 -3.61033190723e+01 -1.42291727100e+01 +3.52312754511e+02  3.54443501838e+02  5.10999000000e-04 0.0000e+00 1.0000e+00
       12  1    3    3    0    0 +4.00818103986e+00 -8.00402058910e-01 +1.44556180404e+03  1.44556758246e+03  0.00000000000e+00 0.0000e+00 -1.0000e+00
      -24  2    1    2    0    0 +3.20951380325e+01 +1.50295747689e+01 +6.04529100435e+02  6.12515570564e+02  9.19994831935e+01 0.0000e+00 0.0000e+00
       11  1    6    6    0    0 -2.79739768359e+01 +2.45510822348e+01 +1.98926227209e+02  2.02378217431e+02  5.10999000000e-04 0.0000e+00 -1.0000e+00
      -12  1    6    6    0    0 +6.00691148684e+01 -9.52150746594e+00 +4.05602873226e+02  4.10137353133e+02  0.00000000000e+00 0.0000e+00 1.0000e+00
#aMCatNLO 1  0  0  2  1 0.90660407E+02 0.00000000E+00  9  5  0 0.00000000E+00 0.00000000E+00 0.00000000E+00 0.00000000E+00 0.00000000E+00
  <rwgt>
   <wgt id='1001'>  +5.7119735e+00 </wgt>
   <wgt id='1002'>  +5.5904737e+00 </wgt>
   <wgt id='1003'>  +5.8631075e+00 </wgt>
   <wgt id='1004'>  +3.4429890e+00 </wgt>
   <wgt id='1005'>  +3.5464614e+00 </wgt>
   <wgt id='1006'>  +3.3144757e+00 </wgt>
   <wgt id='1007'>  +7.8940314e+00 </wgt>
   <wgt id='1008'>  +7.5507697e+00 </wgt>
   <wgt id='1009'>  +8.3197747e+00 </wgt>
   <wgt id='1010'>  +4.4355339e+00 </wgt>
   <wgt id='1011'>  +4.4355339e+00 </wgt>
   <wgt id='1012'>  +4.4355339e+00 </wgt>
   <wgt id='1013'>  +4.5277947e+00 </wgt>
   <wgt id='1014'>  +4.5277947e+00 </wgt>
   <wgt id='1015'>  +4.5277947e+00 </wgt>
   <wgt id='1016'>  +4.2962536e+00 </wgt>
   <wgt id='1017'>  +4.2962536e+00 </wgt>
   <wgt id='1018'>  +4.2962536e+00 </wgt>
   <wgt id='1019'>  +1.2763409e+00 </wgt>
   <wgt id='1020'>  +1.1546929e+00 </wgt>
   <wgt id='1021'>  +1.4275242e+00 </wgt>
   <wgt id='1022'>  -1.0848058e+00 </wgt>
   <wgt id='1023'>  -9.8138274e-01 </wgt>
   <wgt id='1024'>  -1.2133190e+00 </wgt>
   <wgt id='1025'>  +3.5974320e+00 </wgt>
   <wgt id='1026'>  +3.2544667e+00 </wgt>
   <wgt id='1027'>  +4.0236198e+00 </wgt>
</rwgt>
</event> 
<event>
  8      0 +5.7119646e+00 8.23852350e+01 7.54677110e-03 1.12345490e-01
       -2 -1    0    0    0  501 +0.00000000000e+00 +0.00000000000e+00 +9.35437035591e+00  9.35984213305e+00  3.20000000000e-01 0.0000e+00 1.0000e+00
        2 -1    0    0  501    0 +0.00000000000e+00 +0.00000000000e+00 -1.32384854886e+03  1.32384858754e+03  3.20000000000e-01 0.0000e+00 -1.0000e+00
       24  2    1    2    0    0 +1.65500655817e+01 -6.16943504350e+00 -1.09824345158e+03  1.10122815881e+03  7.90747254438e+01 0.0000e+00 0.0000e+00
      -13  1    3    3    0    0 -2.96596470548e+01 -1.60885251127e+01 -4.69164133471e+02  4.70375946030e+02  1.05658000000e-01 0.0000e+00 1.0000e+00
       14  1    3    3    0    0 +4.62097126364e+01 +9.91909006918e+00 -6.29079318112e+02  6.30852212777e+02  0.00000000000e+00 0.0000e+00 -1.0000e+00
      -24  2    1    2    0    0 -1.65500655817e+01 +6.16943504350e+00 -2.16250726922e+02  2.31980270863e+02  8.20883827082e+01 0.0000e+00 0.0000e+00
       11  1    6    6    0    0 -1.02338813629e+01 +1.97032699571e+01 -2.15902451213e+02  2.17041055136e+02  5.10999000000e-04 0.0000e+00 -1.0000e+00
      -12  1    6    6    0    0 -6.31618421873e+00 -1.35338349136e+01 -3.48275709540e-01  1.49392157265e+01  0.00000000000e+00 0.0000e+00 1.0000e+00
#aMCatNLO 1  0  0  2  2 0.84460533E+02 0.00000000E+00  9  5  0 0.00000000E+00 0.00000000E+00 0.00000000E+00 0.00000000E+00 0.00000000E+00
  <rwgt>
   <wgt id='1001'>  +5.7114796e+00 </wgt>
   <wgt id='1002'>  +5.6344309e+00 </wgt>
   <wgt id='1003'>  +5.8087783e+00 </wgt>
   <wgt id='1004'>  +5.9539854e+00 </wgt>
   <wgt id='1005'>  +5.8764428e+00 </wgt>
   <wgt id='1006'>  +6.0502962e+00 </wgt>
   <wgt id='1007'>  +5.3968642e+00 </wgt>
   <wgt id='1008'>  +5.3203094e+00 </wgt>
   <wgt id='1009'>  +5.4916933e+00 </wgt>
   <wgt id='1010'>  +4.9104204e+00 </wgt>
   <wgt id='1011'>  +4.9104204e+00 </wgt>
   <wgt id='1012'>  +4.9104204e+00 </wgt>
   <wgt id='1013'>  +5.1543585e+00 </wgt>
   <wgt id='1014'>  +5.1543585e+00 </wgt>
   <wgt id='1015'>  +5.1543585e+00 </wgt>
   <wgt id='1016'>  +4.6074117e+00 </wgt>
   <wgt id='1017'>  +4.6074117e+00 </wgt>
   <wgt id='1018'>  +4.6074117e+00 </wgt>
   <wgt id='1019'>  +8.0150373e-01 </wgt>
   <wgt id='1020'>  +7.2410933e-01 </wgt>
   <wgt id='1021'>  +8.9806152e-01 </wgt>
   <wgt id='1022'>  +7.9962690e-01 </wgt>
   <wgt id='1023'>  +7.2243006e-01 </wgt>
   <wgt id='1024'>  +8.9588835e-01 </wgt>
   <wgt id='1025'>  +7.8935375e-01 </wgt>
   <wgt id='1026'>  +7.1309532e-01 </wgt>
   <wgt id='1027'>  +8.8438044e-01 </wgt>
</rwgt>
</event> 
<event>
  8      0 +5.7119646e+00 8.64200160e+01 7.54677110e-03 1.04943690e-01
        3 -1    0    0  501    0 +0.00000000000e+00 +0.00000000000e+00 +4.74159701198e+02  4.74159964822e+02  5.00000000000e-01 0.0000e+00 -1.0000e+00
       -3 -1    0    0    0  501 +0.00000000000e+00 +0.00000000000e+00 -2.22229764885e+01  2.22286005859e+01  5.00000000000e-01 0.0000e+00 1.0000e+00
       24  2    1    2    0    0 +9.19941151446e-01 +2.46457891762e+01 +9.49479493674e+01  1.27603268929e+02  8.16040436275e+01 0.0000e+00 0.0000e+00
      -11  1    3    3    0    0 +1.88901442597e+01 +1.63345038607e+01 -5.20696172583e+00  2.55101159778e+01  5.10999000000e-04 0.0000e+00 1.0000e+00
       12  1    3    3    0    0 -1.79702031082e+01 +8.31128531549e+00 +1.00154911093e+02  1.02093152951e+02  0.00000000000e+00 0.0000e+00 -1.0000e+00
      -24  2    1    2    0    0 -9.19941151446e-01 -2.46457891762e+01 +3.56988775342e+02  3.68785296480e+02  8.91815449705e+01 0.0000e+00 0.0000e+00
       11  1    6    6    0    0 -3.08323805464e+01 -8.53103303048e+00 +3.05033109897e+02  3.06706068327e+02  5.10999000000e-04 0.0000e+00 -1.0000e+00
      -12  1    6    6    0    0 +2.99124393949e+01 -1.61147561457e+01 +5.19556654449e+01  6.20792281525e+01  0.00000000000e+00 0.0000e+00 1.0000e+00
#aMCatNLO 1  0  0  2  2 0.18694813E+03 0.00000000E+00  9  5  0 0.00000000E+00 0.00000000E+00 0.00000000E+00 0.00000000E+00 0.00000000E+00
  <rwgt>
   <wgt id='1001'>  +5.7119735e+00 </wgt>
   <wgt id='1002'>  +5.5326872e+00 </wgt>
   <wgt id='1003'>  +5.9357110e+00 </wgt>
   <wgt id='1004'>  +4.7969712e+00 </wgt>
   <wgt id='1005'>  +4.7399255e+00 </wgt>
   <wgt id='1006'>  +4.8682412e+00 </wgt>
   <wgt id='1007'>  +6.4770273e+00 </wgt>
   <wgt id='1008'>  +6.1826619e+00 </wgt>
   <wgt id='1009'>  +6.8425146e+00 </wgt>
   <wgt id='1010'>  +3.8393945e+00 </wgt>
   <wgt id='1011'>  +3.8393945e+00 </wgt>
   <wgt id='1012'>  +3.8393945e+00 </wgt>
   <wgt id='1013'>  +4.1995476e+00 </wgt>
   <wgt id='1014'>  +4.1995476e+00 </wgt>
   <wgt id='1015'>  +4.1995476e+00 </wgt>
   <wgt id='1016'>  +3.4127128e+00 </wgt>
   <wgt id='1017'>  +3.4127128e+00 </wgt>
   <wgt id='1018'>  +3.4127128e+00 </wgt>
   <wgt id='1019'>  +1.8725790e+00 </wgt>
   <wgt id='1020'>  +1.6928976e+00 </wgt>
   <wgt id='1021'>  +2.0960696e+00 </wgt>
   <wgt id='1022'>  +5.9752231e-01 </wgt>
   <wgt id='1023'>  +5.4022971e-01 </wgt>
   <wgt id='1024'>  +6.6884172e-01 </wgt>
   <wgt id='1025'>  +3.0638700e+00 </wgt>
   <wgt id='1026'>  +2.7698997e+00 </wgt>
   <wgt id='1027'>  +3.4296042e+00 </wgt>
</rwgt>
</event> 
<event>
  8      0 +5.7119646e+00 6.79510480e+01 7.54677110e-03 1.16600890e-01
       -1 -1    0    0    0  501 +0.00000000000e+00 +0.00000000000e+00 +5.65878928055e+00  5.66782993055e+00  3.20000000000e-01 0.0000e+00 1.0000e+00
        1 -1    0    0  501    0 +0.00000000000e+00 +0.00000000000e+00 -1.64305541113e+03  1.64305544229e+03  3.20000000000e-01 0.0000e+00 -1.0000e+00
       24  2    1    2    0    0 +9.29335165318e+00 -5.67489021260e+01 -7.16308994291e+02  7.23062672400e+02  8.00890044849e+01 0.0000e+00 0.0000e+00
      -11  1    3    3    0    0 +2.95331195350e+01 -4.04236496036e+01 -2.02516282682e+02  2.08612371034e+02  5.10999000000e-04 0.0000e+00 1.0000e+00
       12  1    3    3    0    0 -2.02397678819e+01 -1.63252525225e+01 -5.13792711608e+02  5.14450301366e+02  0.00000000000e+00 0.0000e+00 -1.0000e+00
      -24  2    1    2    0    0 -9.29335165318e+00 +5.67489021260e+01 -9.21087627562e+02  9.25660599825e+02  7.16821047621e+01 0.0000e+00 0.0000e+00
       11  1    6    6    0    0 +2.94252053254e+00 -1.30304123270e+00 -6.12944438324e-01  3.27597995783e+00  5.10999000000e-04 0.0000e+00 -1.0000e+00
      -12  1    6    6    0    0 -1.22358721857e+01 +5.80519433587e+01 -9.20474683124e+02  9.22384619867e+02  0.00000000000e+00 0.0000e+00 1.0000e+00
#aMCatNLO 1  0  0  2  1 0.17061592E+02 0.00000000E+00  9  5  0 0.00000000E+00 0.00000000E+00 0.00000000E+00 0.00000000E+00 0.00000000E+00
  <rwgt>
   <wgt id='1001'>  +5.7119735e+00 </wgt>
   <wgt id='1002'>  +5.4823092e+00 </wgt>
   <wgt id='1003'>  +5.9949792e+00 </wgt>
   <wgt id='1004'>  +7.4198857e+00 </wgt>
   <wgt id='1005'>  +7.0395814e+00 </wgt>
   <wgt id='1006'>  +7.8890924e+00 </wgt>
   <wgt id='1007'>  +4.1186465e+00 </wgt>
   <wgt id='1008'>  +4.0252497e+00 </wgt>
   <wgt id='1009'>  +4.2326884e+00 </wgt>
   <wgt id='1010'>  +3.2217704e+00 </wgt>
   <wgt id='1011'>  +3.2217704e+00 </wgt>
   <wgt id='1012'>  +3.2217704e+00 </wgt>
   <wgt id='1013'>  +3.3378373e+00 </wgt>
   <wgt id='1014'>  +3.3378373e+00 </wgt>
   <wgt id='1015'>  +3.3378373e+00 </wgt>
   <wgt id='1016'>  +3.0706858e+00 </wgt>
   <wgt id='1017'>  +3.0706858e+00 </wgt>
   <wgt id='1018'>  +3.0706858e+00 </wgt>
   <wgt id='1019'>  +2.4902525e+00 </wgt>
   <wgt id='1020'>  +2.2606376e+00 </wgt>
   <wgt id='1021'>  +2.7732088e+00 </wgt>
   <wgt id='1022'>  +4.0818509e+00 </wgt>
   <wgt id='1023'>  +3.7017935e+00 </wgt>
   <wgt id='1024'>  +4.5514032e+00 </wgt>
   <wgt id='1025'>  +1.0480101e+00 </wgt>
   <wgt id='1026'>  +9.5466266e-01 </wgt>
   <wgt id='1027'>  +1.1620520e+00 </wgt>
</rwgt>
</event> 
<event>
  8      0 -5.7119646e+00 1.25705700e+02 7.54677110e-03 1.05675210e-01
       -1 -1    0    0    0  501 +0.00000000000e+00 +0.00000000000e+00 +1.61174083595e+02  1.61174401264e+02  3.20000000000e-01 0.0000e+00 1.0000e+00
        1 -1    0    0  501    0 +0.00000000000e+00 +0.00000000000e+00 -3.63277603526e+02  3.63277744465e+02  3.20000000000e-01 0.0000e+00 -1.0000e+00
       24  2    1    2    0    0 -1.41898319837e+01 -1.93010542287e+02 +3.09154283969e+01  2.11397530360e+02  7.92384462493e+01 0.0000e+00 0.0000e+00
      -13  1    3    3    0    0 -2.44307967177e+01 -1.07838115549e+02 +5.32887400607e+01  1.22742103511e+02  1.05658000000e-01 0.0000e+00 1.0000e+00
       14  1    3    3    0    0 +1.02409647340e+01 -8.51724267373e+01 -2.23733116638e+01  8.86554268492e+01  0.00000000000e+00 0.0000e+00 -1.0000e+00
      -24  2    1    2    0    0 +1.41898319837e+01 +1.93010542287e+02 -2.33018948327e+02  3.13054615368e+02  7.90628936884e+01 0.0000e+00 0.0000e+00
       11  1    6    6    0    0 -9.91803087025e+00 +1.79946307965e+02 -2.13512103803e+02  2.79403757235e+02  5.10999000000e-04 0.0000e+00 -1.0000e+00
      -12  1    6    6    0    0 +2.41078628540e+01 +1.30642343220e+01 -1.95068445239e+01  3.36508581330e+01  0.00000000000e+00 0.0000e+00 1.0000e+00
#aMCatNLO 1  0  0  1  2 0.23503791E+02 0.00000000E+00  9  5  0 0.00000000E+00 0.00000000E+00 0.00000000E+00 0.00000000E+00 0.00000000E+00
  <rwgt>
   <wgt id='1001'>  -5.7119735e+00 </wgt>
   <wgt id='1002'>  -5.2259742e+00 </wgt>
   <wgt id='1003'>  -6.3002105e+00 </wgt>
   <wgt id='1004'>  -5.7218516e+00 </wgt>
   <wgt id='1005'>  -5.2348644e+00 </wgt>
   <wgt id='1006'>  -6.3110763e+00 </wgt>
   <wgt id='1007'>  -5.6685102e+00 </wgt>
   <wgt id='1008'>  -5.1859682e+00 </wgt>
   <wgt id='1009'>  -6.2523020e+00 </wgt>
   <wgt id='1010'>  +0.0000000e+00 </wgt>
   <wgt id='1011'>  +0.0000000e+00 </wgt>
   <wgt id='1012'>  +0.0000000e+00 </wgt>
   <wgt id='1013'>  +0.0000000e+00 </wgt>
   <wgt id='1014'>  +0.0000000e+00 </wgt>
   <wgt id='1015'>  +0.0000000e+00 </wgt>
   <wgt id='1016'>  +0.0000000e+00 </wgt>
   <wgt id='1017'>  +0.0000000e+00 </wgt>
   <wgt id='1018'>  +0.0000000e+00 </wgt>
   <wgt id='1019'>  -5.7119735e+00 </wgt>
   <wgt id='1020'>  -5.2259742e+00 </wgt>
   <wgt id='1021'>  -6.3002105e+00 </wgt>
   <wgt id='1022'>  -5.7218516e+00 </wgt>
   <wgt id='1023'>  -5.2348644e+00 </wgt>
   <wgt id='1024'>  -6.3110763e+00 </wgt>
   <wgt id='1025'>  -5.6685102e+00 </wgt>
   <wgt id='1026'>  -5.1859682e+00 </wgt>
   <wgt id='1027'>  -6.2523020e+00 </wgt>
</rwgt>
</event> 
<event>
  8      0 +5.7119646e+00 4.72885460e+01 7.54677110e-03 1.09417890e-01
       -2 -1    0    0    0  501 +0.00000000000e+00 +0.00000000000e+00 +6.34860952725e+02  6.34861033372e+02  3.20000000000e-01 0.0000e+00 1.0000e+00
        2 -1    0    0  501    0 +0.00000000000e+00 +0.00000000000e+00 -4.07860749798e+01  4.07873302909e+01  3.20000000000e-01 0.0000e+00 -1.0000e+00
       24  2    1    2    0    0 -6.51705048968e+01 -7.00952236709e+01 +8.43311067289e+01  1.50785549473e+02  8.03990751049e+01 0.0000e+00 0.0000e+00
      -11  1    3    3    0    0 -1.94003554133e+01 -1.83646283897e+01 +7.67887851410e+01  8.13028344509e+01  5.10999000000e-04 0.0000e+00 1.0000e+00
       12  1    3    3    0    0 -4.57701494835e+01 -5.17305952812e+01 +7.54232158791e+00  6.94827150220e+01  0.00000000000e+00 0.0000e+00 -1.0000e+00
      -24  2    1    2    0    0 +6.51705048968e+01 +7.00952236709e+01 +5.09743771016e+02  5.24862814190e+02  8.05091705352e+01 0.0000e+00 0.0000e+00
       11  1    6    6    0    0 -1.21971194304e+01 -8.37481140855e+00 +5.46285323601e+01  5.65966760209e+01  5.10999000000e-04 0.0000e+00 -1.0000e+00
      -12  1    6    6    0    0 +7.73676243272e+01 +7.84700350795e+01 +4.55115238656e+02  4.68266138170e+02  0.00000000000e+00 0.0000e+00 1.0000e+00
#aMCatNLO 1  0  0  1  2 0.66183359E+02 0.00000000E+00  9  5  0 0.00000000E+00 0.00000000E+00 0.00000000E+00 0.00000000E+00 0.00000000E+00
  <rwgt>
   <wgt id='1001'>  +5.7114796e+00 </wgt>
   <wgt id='1002'>  +5.5731871e+00 </wgt>
   <wgt id='1003'>  +5.8813818e+00 </wgt>
   <wgt id='1004'>  +7.1502154e+00 </wgt>
   <wgt id='1005'>  +6.8874596e+00 </wgt>
   <wgt id='1006'>  +7.4722393e+00 </wgt>
   <wgt id='1007'>  +4.3932065e+00 </wgt>
   <wgt id='1008'>  +4.3642145e+00 </wgt>
   <wgt id='1009'>  +4.4276808e+00 </wgt>
   <wgt id='1010'>  +4.1458111e+00 </wgt>
   <wgt id='1011'>  +4.1458111e+00 </wgt>
   <wgt id='1012'>  +4.1458111e+00 </wgt>
   <wgt id='1013'>  +4.2215757e+00 </wgt>
   <wgt id='1014'>  +4.2215757e+00 </wgt>
   <wgt id='1015'>  +4.2215757e+00 </wgt>
   <wgt id='1016'>  +4.0320162e+00 </wgt>
   <wgt id='1017'>  +4.0320162e+00 </wgt>
   <wgt id='1018'>  +4.0320162e+00 </wgt>
   <wgt id='1019'>  +1.5661624e+00 </wgt>
   <wgt id='1020'>  +1.4274254e+00 </wgt>
   <wgt id='1021'>  +1.7355213e+00 </wgt>
   <wgt id='1022'>  +2.9284421e+00 </wgt>
   <wgt id='1023'>  +2.6655876e+00 </wgt>
   <wgt id='1024'>  +3.2503673e+00 </wgt>
   <wgt id='1025'>  +3.6118046e-01 </wgt>
   <wgt id='1026'>  +3.3222300e-01 </wgt>
   <wgt id='1027'>  +3.9567949e-01 </wgt>
</rwgt>
</event> 
<event>
  8      0 +5.7119646e+00 9.61113430e+01 7.54677110e-03 1.17095830e-01
       -2 -1    0    0    0  501 +0.00000000000e+00 +0.00000000000e+00 +2.74327480674e+01  2.74346143864e+01  3.20000000000e-01 0.0000e+00 1.0000e+00
        2 -1    0    0  501    0 +0.00000000000e+00 +0.00000000000e+00 -3.71145682261e+02  3.71145820212e+02  3.20000000000e-01 0.0000e+00 -1.0000e+00
       24  2    1    2    0    0 -1.77873267010e+01 -5.65189160398e+01 -1.79619133880e+02  2.05443555046e+02  8.02075070840e+01 0.0000e+00 0.0000e+00
      -11  1    3    3    0    0 -3.26136935614e+01 -3.99068346289e+00 -2.44525366084e+01  4.09573572031e+01  5.10999000000e-04 0.0000e+00 1.0000e+00
       12  1    3    3    0    0 +1.48263668604e+01 -5.25282325769e+01 -1.55166597272e+02  1.64486197843e+02  0.00000000000e+00 0.0000e+00 -1.0000e+00
      -24  2    1    2    0    0 +1.77873267010e+01 +5.65189160398e+01 -1.64093800313e+02  1.93136879552e+02  8.28510837618e+01 0.0000e+00 0.0000e+00
       13  1    6    6    0    0 -5.05296943064e+00 -2.05925770065e+01 -2.91609949991e+01  3.60549791400e+01  1.05658000000e-01 0.0000e+00 -1.0000e+00
      -14  1    6    6    0    0 +2.28402961316e+01 +7.71114930463e+01 -1.34932805314e+02  1.57081900412e+02  0.00000000000e+00 0.0000e+00 1.0000e+00
#aMCatNLO 1  0  0  2  1 0.14691120E+01 0.00000000E+00  9  5  0 0.00000000E+00 0.00000000E+00 0.00000000E+00 0.00000000E+00 0.00000000E+00
  <rwgt>
   <wgt id='1001'>  +5.7119735e+00 </wgt>
   <wgt id='1002'>  +5.5307116e+00 </wgt>
   <wgt id='1003'>  +5.9258330e+00 </wgt>
   <wgt id='1004'>  +6.7407708e+00 </wgt>
   <wgt id='1005'>  +6.4878931e+00 </wgt>
   <wgt id='1006'>  +7.0435326e+00 </wgt>
   <wgt id='1007'>  +4.7951931e+00 </wgt>
   <wgt id='1008'>  +4.6715201e+00 </wgt>
   <wgt id='1009'>  +4.9387210e+00 </wgt>
   <wgt id='1010'>  +3.4201213e+00 </wgt>
   <wgt id='1011'>  +3.4201213e+00 </wgt>
   <wgt id='1012'>  +3.4201213e+00 </wgt>
   <wgt id='1013'>  +3.6572435e+00 </wgt>
   <wgt id='1014'>  +3.6572435e+00 </wgt>
   <wgt id='1015'>  +3.6572435e+00 </wgt>
   <wgt id='1016'>  +3.1434376e+00 </wgt>
   <wgt id='1017'>  +3.1434376e+00 </wgt>
   <wgt id='1018'>  +3.1434376e+00 </wgt>
   <wgt id='1019'>  +2.2918522e+00 </wgt>
   <wgt id='1020'>  +2.1108372e+00 </wgt>
   <wgt id='1021'>  +2.5057610e+00 </wgt>
   <wgt id='1022'>  +3.0837248e+00 </wgt>
   <wgt id='1023'>  +2.8305508e+00 </wgt>
   <wgt id='1024'>  +3.3861409e+00 </wgt>
   <wgt id='1025'>  +1.6517556e+00 </wgt>
   <wgt id='1026'>  +1.5279838e+00 </wgt>
   <wgt id='1027'>  +1.7952834e+00 </wgt>
</rwgt>
</event> 
<event>
  8      0 +5.7119646e+00 4.25621810e+01 7.54677110e-03 1.17974650e-01
        1 -1    0    0  501    0 +0.00000000000e+00 +0.00000000000e+00 +1.54648780588e+02  1.54649111661e+02  3.20000000000e-01 0.0000e+00 -1.0000e+00
       -1 -1    0    0    0  501 +0.00000000000e+00 +0.00000000000e+00 -6.25192581257e+01  6.25200770680e+01  3.20000000000e-01 0.0000e+00 1.0000e+00
       24  2    1    2    0    0 +7.98193651017e+00 +2.78704094715e+01 -1.19777041223e+01  8.27469170591e+01  7.65709857072e+01 0.0000e+00 0.0000e+00
      -11  1    3    3    0    0 -2.08478513906e+01 +2.62845185929e+01 -3.29788182794e+01  4.70437166966e+01  5.10999000000e-04 0.0000e+00 1.0000e+00
       12  1    3    3    0    0 +2.88297879008e+01 +1.58589087864e+00 +2.10011141571e+01  3.57032003625e+01  0.00000000000e+00 0.0000e+00 -1.0000e+00
      -24  2    1    2    0    0 -7.98193651017e+00 -2.78704094715e+01 +1.04107226585e+02  1.34422271670e+02  7.99409873534e+01 0.0000e+00 0.0000e+00
       11  1    6    6    0    0 -2.63591962086e+01 -3.19198026622e+01 +1.07594848488e+02  1.15283704174e+02  5.10999000000e-04 0.0000e+00 -1.0000e+00
      -12  1    6    6    0    0 +1.83772596985e+01 +4.04939319065e+00 -3.48762190286e+00  1.91385674954e+01  0.00000000000e+00 0.0000e+00 1.0000e+00
#aMCatNLO 1  0  0  2  1 0.22592701E+02 0.00000000E+00  9  5  0 0.00000000E+00 0.00000000E+00 0.00000000E+00 0.00000000E+00 0.00000000E+00
  <rwgt>
   <wgt id='1001'>  +5.7119735e+00 </wgt>
   <wgt id='1002'>  +5.5613335e+00 </wgt>
   <wgt id='1003'>  +5.8957050e+00 </wgt>
   <wgt id='1004'>  +5.9204001e+00 </wgt>
   <wgt id='1005'>  +5.7751929e+00 </wgt>
   <wgt id='1006'>  +6.0957352e+00 </wgt>
   <wgt id='1007'>  +5.5465164e+00 </wgt>
   <wgt id='1008'>  +5.3805655e+00 </wgt>
   <wgt id='1009'>  +5.7495101e+00 </wgt>
   <wgt id='1010'>  +4.0132973e+00 </wgt>
   <wgt id='1011'>  +4.0132973e+00 </wgt>
   <wgt id='1012'>  +4.0132973e+00 </wgt>
   <wgt id='1013'>  +4.2776335e+00 </wgt>
   <wgt id='1014'>  +4.2776335e+00 </wgt>
   <wgt id='1015'>  +4.2776335e+00 </wgt>
   <wgt id='1016'>  +3.6985831e+00 </wgt>
   <wgt id='1017'>  +3.6985831e+00 </wgt>
   <wgt id='1018'>  +3.6985831e+00 </wgt>
   <wgt id='1019'>  +1.6986268e+00 </wgt>
   <wgt id='1020'>  +1.5480362e+00 </wgt>
   <wgt id='1021'>  +1.8823089e+00 </wgt>
   <wgt id='1022'>  +1.6424702e+00 </wgt>
   <wgt id='1023'>  +1.4978558e+00 </wgt>
   <wgt id='1024'>  +1.8183486e+00 </wgt>
   <wgt id='1025'>  +1.8481309e+00 </wgt>
   <wgt id='1026'>  +1.6822787e+00 </wgt>
   <wgt id='1027'>  +2.0509763e+00 </wgt>
</rwgt>
</event> 
<event>
  8      0 +5.7119646e+00 1.01058560e+02 7.54677110e-03 9.33883150e-02
        1 -1    0    0  501    0 +0.00000000000e+00 +0.00000000000e+00 +7.96235582001e+02  7.96235646304e+02  3.20000000000e-01 0.0000e+00 -1.0000e+00
       -1 -1    0    0    0  501 +0.00000000000e+00 +0.00000000000e+00 -4.27508102485e+02  4.27508222249e+02  3.20000000000e-01 0.0000e+00 1.0000e+00
       24  2    1    2    0    0 -2.09174542250e+01 +5.75145484352e+01 -4.18211428330e+02  4.30417107751e+02  8.13180464921e+01 0.0000e+00 0.0000e+00
      -13  1    3    3    0    0 +2.15114421361e+01 +1.14191317939e+01 -2.45295597381e+02  2.46501683507e+02  1.05658000000e-01 0.0000e+00 1.0000e+00
       14  1    3    3    0    0 -4.24288963612e+01 +4.60954166413e+01 -1.72915830949e+02  1.83915424243e+02  0.00000000000e+00 0.0000e+00 -1.0000e+00
      -24  2    1    2    0    0 +2.09174542250e+01 -5.75145484352e+01 +7.86938907847e+02  7.93326760802e+02  7.96808731602e+01 0.0000e+00 0.0000e+00
       13  1    6    6    0    0 +2.73472474102e+01 -6.09437858576e+01 +7.81201243057e+02  7.84051918110e+02  1.05658000000e-01 0.0000e+00 -1.0000e+00
      -14  1    6    6    0    0 -6.42979318521e+00 +3.42923742242e+00 +5.73766479062e+00  9.27484269157e+00  0.00000000000e+00 0.0000e+00 1.0000e+00
#aMCatNLO 1  0  0  2  1 0.54580245E+03 0.00000000E+00  9  5  0 0.00000000E+00 0.00000000E+00 0.00000000E+00 0.00000000E+00 0.00000000E+00
  <rwgt>
   <wgt id='1001'>  +5.7119735e+00 </wgt>
   <wgt id='1002'>  +5.4966324e+00 </wgt>
   <wgt id='1003'>  +5.9786805e+00 </wgt>
   <wgt id='1004'>  +4.9642063e+00 </wgt>
   <wgt id='1005'>  +4.8022559e+00 </wgt>
   <wgt id='1006'>  +5.1647304e+00 </wgt>
   <wgt id='1007'>  +6.6069235e+00 </wgt>
   <wgt id='1008'>  +6.3244117e+00 </wgt>
   <wgt id='1009'>  +6.9556181e+00 </wgt>
   <wgt id='1010'>  +3.4126140e+00 </wgt>
   <wgt id='1011'>  +3.4126140e+00 </wgt>
   <wgt id='1012'>  +3.4126140e+00 </wgt>
   <wgt id='1013'>  +3.2387112e+00 </wgt>
   <wgt id='1014'>  +3.2387112e+00 </wgt>
   <wgt id='1015'>  +3.2387112e+00 </wgt>
   <wgt id='1016'>  +3.5984198e+00 </wgt>
   <wgt id='1017'>  +3.5984198e+00 </wgt>
   <wgt id='1018'>  +3.5984198e+00 </wgt>
   <wgt id='1019'>  +2.2993595e+00 </wgt>
   <wgt id='1020'>  +2.0836232e+00 </wgt>
   <wgt id='1021'>  +2.5662640e+00 </wgt>
   <wgt id='1022'>  +1.7254951e+00 </wgt>
   <wgt id='1023'>  +1.5635941e+00 </wgt>
   <wgt id='1024'>  +1.9257722e+00 </wgt>
   <wgt id='1025'>  +3.0081085e+00 </wgt>
   <wgt id='1026'>  +2.7258930e+00 </wgt>
   <wgt id='1027'>  +3.3573464e+00 </wgt>
</rwgt>
</event> 
<event>
  9      0 +5.7119646e+00 8.76125880e+01 7.54677110e-03 1.09749570e-01
        4 -1    0    0  501    0 +0.00000000000e+00 +0.00000000000e+00 +5.14027417913e+02  5.14029754845e+02  1.55000000000e+00 0.0000e+00 -1.0000e+00
       21 -1    0    0  502  501 +0.00000000000e+00 +0.00000000000e+00 -9.30980577918e+01  9.31010787511e+01  7.50000000000e-01 0.0000e+00 1.0000e+00
       24  2    1    2    0    0 -6.60475153882e+01 +5.58291401395e+00 +2.16779213470e+02  2.40429052158e+02  8.01215233954e+01 0.0000e+00 0.0000e+00
      -11  1    3    3    0    0 -2.01433488340e+01 -2.86398001193e+01 +1.41963300894e+02  1.46217548379e+02  5.10999000000e-04 0.0000e+00 1.0000e+00
       12  1    3    3    0    0 -4.59041665543e+01 +3.42227141332e+01 +7.48159125761e+01  9.42115037789e+01  0.00000000000e+00 0.0000e+00 -1.0000e+00
      -24  2    1    2    0    0 -2.28522655950e+01 +6.02727489976e+01 -3.03363154347e+01  1.07421155839e+02  8.03988953473e+01 0.0000e+00 0.0000e+00
       13  1    6    6    0    0 +1.77368202807e+01 -9.41672259312e+00 +2.71263818552e+00  2.02642302495e+01  1.05658000000e-01 0.0000e+00 -1.0000e+00
      -14  1    6    6    0    0 -4.05890858757e+01 +6.96894715907e+01 -3.30489536202e+01  8.71569255895e+01  0.00000000000e+00 0.0000e+00 1.0000e+00
        4  1    1    2  502    0 +8.88997809833e+01 -6.58556630115e+01 +2.34486462086e+02  2.59280625599e+02  1.55000000000e+00 0.0000e+00 -1.0000e+00
#aMCatNLO 2  0  0  2  1 0.11052679E+03 0.00000000E+00  9  5  0 0.00000000E+00 0.00000000E+00 0.00000000E+00 0.00000000E+00 0.00000000E+00
  <rwgt>
   <wgt id='1001'>  +5.7119735e+00 </wgt>
   <wgt id='1002'>  +5.2081938e+00 </wgt>
   <wgt id='1003'>  +6.3263873e+00 </wgt>
   <wgt id='1004'>  +5.7682783e+00 </wgt>
   <wgt id='1005'>  +5.2595595e+00 </wgt>
   <wgt id='1006'>  +6.3886189e+00 </wgt>
   <wgt id='1007'>  +5.5178701e+00 </wgt>
   <wgt id='1008'>  +5.0313769e+00 </wgt>
   <wgt id='1009'>  +6.1115400e+00 </wgt>
   <wgt id='1010'>  +0.0000000e+00 </wgt>
   <wgt id='1011'>  +0.0000000e+00 </wgt>
   <wgt id='1012'>  +0.0000000e+00 </wgt>
   <wgt id='1013'>  +0.0000000e+00 </wgt>
   <wgt id='1014'>  +0.0000000e+00 </wgt>
   <wgt id='1015'>  +0.0000000e+00 </wgt>
   <wgt id='1016'>  +0.0000000e+00 </wgt>
   <wgt id='1017'>  +0.0000000e+00 </wgt>
   <wgt id='1018'>  +0.0000000e+00 </wgt>
   <wgt id='1019'>  +5.7119735e+00 </wgt>
   <wgt id='1020'>  +5.2081938e+00 </wgt>
   <wgt id='1021'>  +6.3263873e+00 </wgt>
   <wgt id='1022'>  +5.7682783e+00 </wgt>
   <wgt id='1023'>  +5.2595595e+00 </wgt>
   <wgt id='1024'>  +6.3886189e+00 </wgt>
   <wgt id='1025'>  +5.5178701e+00 </wgt>
   <wgt id='1026'>  +5.0313769e+00 </wgt>
   <wgt id='1027'>  +6.1115400e+00 </wgt>
</rwgt>
</event> 
<event>
  8      0 +5.7119646e+00 1.30844780e+02 7.54677110e-03 1.06775310e-01
        2 -1    0    0  501    0 +0.00000000000e+00 +0.00000000000e+00 +2.48248510387e+03  2.48248512449e+03  3.20000000000e-01 0.0000e+00 -1.0000e+00
       -2 -1    0    0    0  501 +0.00000000000e+00 +0.00000000000e+00 -1.92445679186e+01  1.92472282257e+01  3.20000000000e-01 0.0000e+00 1.0000e+00
       24  2    1    2    0    0 -9.51581169612e+01 +4.11501474048e+01 +2.23369584835e+03  2.23738763405e+03  7.58806971841e+01 0.0000e+00 0.0000e+00
      -11  1    3    3    0    0 -1.98365986665e+01 -3.30571487512e+00 +1.05752675018e+02  1.07647789904e+02  5.10999000000e-04 0.0000e+00 1.0000e+00
       12  1    3    3    0    0 -7.53215182946e+01 +4.44558622799e+01 +2.12794317333e+03  2.12973984414e+03  0.00000000000e+00 0.0000e+00 -1.0000e+00
      -24  2    1    2    0    0 +9.51581169612e+01 -4.11501474048e+01 +2.29544687599e+02  2.64344718669e+02  8.02431606310e+01 0.0000e+00 0.0000e+00
       13  1    6    6    0    0 +5.62202291309e+01 +1.09304100031e+01 +1.55965246136e+02  1.66148599730e+02  1.05658000000e-01 0.0000e+00 -1.0000e+00
      -14  1    6    6    0    0 +3.89378878303e+01 -5.20805574080e+01 +7.35794414632e+01  9.81961189388e+01  0.00000000000e+00 0.0000e+00 1.0000e+00
#aMCatNLO 1  0  0  1  1 0.11138837E+03 0.00000000E+00  9  5  0 0.00000000E+00 0.00000000E+00 0.00000000E+00 0.00000000E+00 0.00000000E+00
  <rwgt>
   <wgt id='1001'>  +5.7119735e+00 </wgt>
   <wgt id='1002'>  +5.7835893e+00 </wgt>
   <wgt id='1003'>  +5.6245529e+00 </wgt>
   <wgt id='1004'>  +5.5801018e+00 </wgt>
   <wgt id='1005'>  +5.6546809e+00 </wgt>
   <wgt id='1006'>  +5.4882360e+00 </wgt>
   <wgt id='1007'>  +5.8127295e+00 </wgt>
   <wgt id='1008'>  +5.8803940e+00 </wgt>
   <wgt id='1009'>  +5.7297540e+00 </wgt>
   <wgt id='1010'>  +6.5007346e+00 </wgt>
   <wgt id='1011'>  +6.5007346e+00 </wgt>
   <wgt id='1012'>  +6.5007346e+00 </wgt>
   <wgt id='1013'>  +6.4054116e+00 </wgt>
   <wgt id='1014'>  +6.4054116e+00 </wgt>
   <wgt id='1015'>  +6.4054116e+00 </wgt>
   <wgt id='1016'>  +6.5595089e+00 </wgt>
   <wgt id='1017'>  +6.5595089e+00 </wgt>
   <wgt id='1018'>  +6.5595089e+00 </wgt>
   <wgt id='1019'>  -7.8900802e-01 </wgt>
   <wgt id='1020'>  -7.1758983e-01 </wgt>
   <wgt id='1021'>  -8.7662618e-01 </wgt>
   <wgt id='1022'>  -8.2575430e-01 </wgt>
   <wgt id='1023'>  -7.5102697e-01 </wgt>
   <wgt id='1024'>  -9.1747186e-01 </wgt>
   <wgt id='1025'>  -7.4658186e-01 </wgt>
   <wgt id='1026'>  -6.7901610e-01 </wgt>
   <wgt id='1027'>  -8.2950796e-01 </wgt>
</rwgt>
</event> 
<event>
  8      0 +5.7119646e+00 6.48268700e+01 7.54677110e-03 1.14993370e-01
        1 -1    0    0  501    0 +0.00000000000e+00 +0.00000000000e+00 +7.80602069695e+02  7.80602135285e+02  3.20000000000e-01 0.0000e+00 -1.0000e+00
       -1 -1    0    0    0  501 +0.00000000000e+00 +0.00000000000e+00 -2.63100187694e+01  2.63119647242e+01  3.20000000000e-01 0.0000e+00 1.0000e+00
       24  2    1    2    0    0 +2.46880187376e+01 +2.44601773280e+01 +5.62177906044e+01  1.02953923460e+02  7.89384052999e+01 0.0000e+00 0.0000e+00
      -11  1    3    3    0    0 +2.33255990628e+01 -6.44220692665e+00 -1.27607286567e+01  2.73572988037e+01  5.10999000000e-04 0.0000e+00 1.0000e+00
       12  1    3    3    0    0 +1.36241967479e+00 +3.09023842546e+01 +6.89785192611e+01  7.55966246564e+01  0.00000000000e+00 0.0000e+00 -1.0000e+00
      -24  2    1    2    0    0 -2.46880187376e+01 -2.44601773280e+01 +6.98074260321e+02  7.03960176549e+02  8.39312736737e+01 0.0000e+00 0.0000e+00
       11  1    6    6    0    0 -4.98882776999e+01 -6.22119736021e-01 +2.76827432655e+02  2.81287494844e+02  5.10999000000e-04 0.0000e+00 -1.0000e+00
      -12  1    6    6    0    0 +2.52002589623e+01 -2.38380575920e+01 +4.21246827666e+02  4.22672681705e+02  0.00000000000e+00 0.0000e+00 1.0000e+00
#aMCatNLO 1  0  0  2  1 0.47471936E+02 0.00000000E+00  9  5  0 0.00000000E+00 0.00000000E+00 0.00000000E+00 0.00000000E+00 0.00000000E+00
  <rwgt>
   <wgt id='1001'>  +5.7119735e+00 </wgt>
   <wgt id='1002'>  +5.6028212e+00 </wgt>
   <wgt id='1003'>  +5.8448331e+00 </wgt>
   <wgt id='1004'>  +5.5603457e+00 </wgt>
   <wgt id='1005'>  +5.4813214e+00 </wgt>
   <wgt id='1006'>  +5.6556687e+00 </wgt>
   <wgt id='1007'>  +5.8897781e+00 </wgt>
   <wgt id='1008'>  +5.7435832e+00 </wgt>
   <wgt id='1009'>  +6.0695584e+00 </wgt>
   <wgt id='1010'>  +4.4857143e+00 </wgt>
   <wgt id='1011'>  +4.4857143e+00 </wgt>
   <wgt id='1012'>  +4.4857143e+00 </wgt>
   <wgt id='1013'>  +4.6459854e+00 </wgt>
   <wgt id='1014'>  +4.6459854e+00 </wgt>
   <wgt id='1015'>  +4.6459854e+00 </wgt>
   <wgt id='1016'>  +4.2760530e+00 </wgt>
   <wgt id='1017'>  +4.2760530e+00 </wgt>
   <wgt id='1018'>  +4.2760530e+00 </wgt>
   <wgt id='1019'>  +1.2264074e+00 </wgt>
   <wgt id='1020'>  +1.1173539e+00 </wgt>
   <wgt id='1021'>  +1.3595633e+00 </wgt>
   <wgt id='1022'>  +9.1436027e-01 </wgt>
   <wgt id='1023'>  +8.3538539e-01 </wgt>
   <wgt id='1024'>  +1.0101278e+00 </wgt>
   <wgt id='1025'>  +1.6140709e+00 </wgt>
   <wgt id='1026'>  +1.4676784e+00 </wgt>
   <wgt id='1027'>  +1.7938017e+00 </wgt>
</rwgt>
</event> 
<event>
  9      0 +5.7119646e+00 1.12511220e+02 7.54677110e-03 1.13316870e-01
       21 -1    0    0  502  501 +0.00000000000e+00 +0.00000000000e+00 +2.56626455310e+01  2.56736027010e+01  7.50000000000e-01 0.0000e+00 -1.0000e+00
        2 -1    0    0  501    0 +0.00000000000e+00 +0.00000000000e+00 -1.61013715369e+03  1.61013718549e+03  3.20000000000e-01 0.0000e+00 -1.0000e+00
       24  2    1    2    0    0 +7.01734452361e+01 +5.55045783087e+01 -1.32154485560e+03  1.32723421947e+03  8.40523487656e+01 0.0000e+00 0.0000e+00
      -11  1    3    3    0    0 +9.44366571063e+00 +6.07959584082e+01 -6.19455729219e+02  6.22503599864e+02  5.10999000000e-04 0.0000e+00 1.0000e+00
       12  1    3    3    0    0 +6.07297795254e+01 -5.29138009952e+00 -7.02089126383e+02  7.04730619605e+02  0.00000000000e+00 0.0000e+00 -1.0000e+00
      -24  2    1    2    0    0 -4.31655369597e+01 -5.21252370279e+01 -2.60893542239e+02  2.81280136682e+02  8.04535331316e+01 0.0000e+00 0.0000e+00
       11  1    6    6    0    0 -3.60408928438e+01 -5.80550256443e+01 -2.63035464925e+02  2.71766421340e+02  5.10999000000e-04 0.0000e+00 -1.0000e+00
      -12  1    6    6    0    0 -7.12464411584e+00 +5.92978861641e+00 +2.14192268550e+00  9.51371534173e+00  0.00000000000e+00 0.0000e+00 1.0000e+00
        2  1    1    2  502    0 -2.70079082764e+01 -3.37934128078e+00 -2.03611032096e+00  2.72964320415e+01  3.20000000000e-01 0.0000e+00 -1.0000e+00
#aMCatNLO 2  0  0  1  2 0.27218506E+02 0.00000000E+00  9  5  0 0.00000000E+00 0.00000000E+00 0.00000000E+00 0.00000000E+00 0.00000000E+00
  <rwgt>
   <wgt id='1001'>  +5.7114796e+00 </wgt>
   <wgt id='1002'>  +5.1928828e+00 </wgt>
   <wgt id='1003'>  +6.3500946e+00 </wgt>
   <wgt id='1004'>  +5.6531992e+00 </wgt>
   <wgt id='1005'>  +5.1395414e+00 </wgt>
   <wgt id='1006'>  +6.2844056e+00 </wgt>
   <wgt id='1007'>  +5.6749309e+00 </wgt>
   <wgt id='1008'>  +5.1592975e+00 </wgt>
   <wgt id='1009'>  +6.3086068e+00 </wgt>
   <wgt id='1010'>  +0.0000000e+00 </wgt>
   <wgt id='1011'>  +0.0000000e+00 </wgt>
   <wgt id='1012'>  +0.0000000e+00 </wgt>
   <wgt id='1013'>  +0.0000000e+00 </wgt>
   <wgt id='1014'>  +0.0000000e+00 </wgt>
   <wgt id='1015'>  +0.0000000e+00 </wgt>
   <wgt id='1016'>  +0.0000000e+00 </wgt>
   <wgt id='1017'>  +0.0000000e+00 </wgt>
   <wgt id='1018'>  +0.0000000e+00 </wgt>
   <wgt id='1019'>  +5.7114796e+00 </wgt>
   <wgt id='1020'>  +5.1928828e+00 </wgt>
   <wgt id='1021'>  +6.3500946e+00 </wgt>
   <wgt id='1022'>  +5.6531992e+00 </wgt>
   <wgt id='1023'>  +5.1395414e+00 </wgt>
   <wgt id='1024'>  +6.2844056e+00 </wgt>
   <wgt id='1025'>  +5.6749309e+00 </wgt>
   <wgt id='1026'>  +5.1592975e+00 </wgt>
   <wgt id='1027'>  +6.3086068e+00 </wgt>
</rwgt>
</event> 
<event>
  9      0 +5.7119646e+00 1.18440590e+02 7.54677110e-03 1.10802510e-01
       21 -1    0    0  502  501 +0.00000000000e+00 +0.00000000000e+00 +2.32595913287e+02  2.32597122462e+02  7.50000000000e-01 0.0000e+00 1.0000e+00
        2 -1    0    0  501    0 +0.00000000000e+00 +0.00000000000e+00 -3.95698077574e+02  3.95698206966e+02  3.20000000000e-01 0.0000e+00 -1.0000e+00
       24  2    1    2    0    0 +7.32824197715e+01 -3.21184658812e+01 -3.41808803906e+02  3.60066875014e+02  8.00811285912e+01 0.0000e+00 0.0000e+00
      -11  1    3    3    0    0 -6.12130795063e+00 -3.10713400599e+01 -6.87085425173e+01  7.56555510142e+01  5.10999000000e-04 0.0000e+00 1.0000e+00
       12  1    3    3    0    0 +7.94037277221e+01 -1.04712582129e+00 -2.73100261389e+02  2.84411324000e+02  0.00000000000e+00 0.0000e+00 -1.0000e+00
      -24  2    1    2    0    0 -5.66742147377e+01 +8.37394355603e+01 +1.69504257202e+02  2.13225334256e+02  8.06789332764e+01 0.0000e+00 0.0000e+00
       13  1    6    6    0    0 -2.90202760682e+01 +8.65626480714e+01 +8.67990884862e+01  1.25973653554e+02  1.05658000000e-01 0.0000e+00 -1.0000e+00
      -14  1    6    6    0    0 -2.76539386695e+01 -2.82321251105e+00 +8.27051687162e+01  8.72516807012e+01  0.00000000000e+00 0.0000e+00 1.0000e+00
        2  1    1    2  502    0 -1.66082050338e+01 -5.16209696791e+01 +9.20238241595e+00  5.50031201586e+01  3.20000000000e-01 0.0000e+00 -1.0000e+00
#aMCatNLO 2  0  0  1  2 0.54226903E+02 0.00000000E+00  9  5  0 0.00000000E+00 0.00000000E+00 0.00000000E+00 0.00000000E+00 0.00000000E+00
  <rwgt>
   <wgt id='1001'>  +5.7114796e+00 </wgt>
   <wgt id='1002'>  +5.2037486e+00 </wgt>
   <wgt id='1003'>  +6.3333019e+00 </wgt>
   <wgt id='1004'>  +5.4847787e+00 </wgt>
   <wgt id='1005'>  +4.9963099e+00 </wgt>
   <wgt id='1006'>  +6.0809181e+00 </wgt>
   <wgt id='1007'>  +5.8912598e+00 </wgt>
   <wgt id='1008'>  +5.3667362e+00 </wgt>
   <wgt id='1009'>  +6.5318504e+00 </wgt>
   <wgt id='1010'>  +0.0000000e+00 </wgt>
   <wgt id='1011'>  +0.0000000e+00 </wgt>
   <wgt id='1012'>  +0.0000000e+00 </wgt>
   <wgt id='1013'>  +0.0000000e+00 </wgt>
   <wgt id='1014'>  +0.0000000e+00 </wgt>
   <wgt id='1015'>  +0.0000000e+00 </wgt>
   <wgt id='1016'>  +0.0000000e+00 </wgt>
   <wgt id='1017'>  +0.0000000e+00 </wgt>
   <wgt id='1018'>  +0.0000000e+00 </wgt>
   <wgt id='1019'>  +5.7114796e+00 </wgt>
   <wgt id='1020'>  +5.2037486e+00 </wgt>
   <wgt id='1021'>  +6.3333019e+00 </wgt>
   <wgt id='1022'>  +5.4847787e+00 </wgt>
   <wgt id='1023'>  +4.9963099e+00 </wgt>
   <wgt id='1024'>  +6.0809181e+00 </wgt>
   <wgt id='1025'>  +5.8912598e+00 </wgt>
   <wgt id='1026'>  +5.3667362e+00 </wgt>
   <wgt id='1027'>  +6.5318504e+00 </wgt>
</rwgt>
</event> 
<event>
  8      0 +5.7119646e+00 8.07784180e+01 7.54677110e-03 1.04746500e-01
        1 -1    0    0  501    0 +0.00000000000e+00 +0.00000000000e+00 +3.84577565967e+02  3.84577699100e+02  3.20000000000e-01 0.0000e+00 -1.0000e+00
       -1 -1    0    0    0  501 +0.00000000000e+00 +0.00000000000e+00 -4.00626620712e+01  4.00639400488e+01  3.20000000000e-01 0.0000e+00 1.0000e+00
       24  2    1    2    0    0 -3.36882593834e+00 +4.26872850043e+00 +1.17725226170e+01  8.20840087001e+01  8.10531995932e+01 0.0000e+00 0.0000e+00
      -11  1    3    3    0    0 -3.76244247703e+01 +1.94429532937e+01 -1.38750285764e+00  4.23739417156e+01  5.10999000000e-04 0.0000e+00 1.0000e+00
       12  1    3    3    0    0 +3.42555988320e+01 -1.51742247933e+01 +1.31600254746e+01  3.97100669844e+01  0.00000000000e+00 0.0000e+00 -1.0000e+00
      -24  2    1    2    0    0 +3.36882593834e+00 -4.26872850043e+00 +3.32742381278e+02  3.42557630448e+02  8.12321786506e+01 0.0000e+00 0.0000e+00
       11  1    6    6    0    0 +7.81518560505e+00 +3.30982240165e+01 +2.41151200736e+02  2.43537412271e+02  5.10999000000e-04 0.0000e+00 -1.0000e+00
      -12  1    6    6    0    0 -4.44635966671e+00 -3.73669525169e+01 +9.15911805426e+01  9.90202181772e+01  0.00000000000e+00 0.0000e+00 1.0000e+00
#aMCatNLO 1  0  0  2  1 0.19443821E+03 0.00000000E+00  9  5  0 0.00000000E+00 0.00000000E+00 0.00000000E+00 0.00000000E+00 0.00000000E+00
  <rwgt>
   <wgt id='1001'>  +5.7119735e+00 </wgt>
   <wgt id='1002'>  +5.5208336e+00 </wgt>
   <wgt id='1003'>  +5.9505281e+00 </wgt>
   <wgt id='1004'>  +4.8059108e+00 </wgt>
   <wgt id='1005'>  +4.7206634e+00 </wgt>
   <wgt id='1006'>  +4.9123960e+00 </wgt>
   <wgt id='1007'>  +6.5733381e+00 </wgt>
   <wgt id='1008'>  +6.2760093e+00 </wgt>
   <wgt id='1009'>  +6.9442583e+00 </wgt>
   <wgt id='1010'>  +3.7371074e+00 </wgt>
   <wgt id='1011'>  +3.7371074e+00 </wgt>
   <wgt id='1012'>  +3.7371074e+00 </wgt>
   <wgt id='1013'>  +3.9260743e+00 </wgt>
   <wgt id='1014'>  +3.9260743e+00 </wgt>
   <wgt id='1015'>  +3.9260743e+00 </wgt>
   <wgt id='1016'>  +3.5037389e+00 </wgt>
   <wgt id='1017'>  +3.5037389e+00 </wgt>
   <wgt id='1018'>  +3.5037389e+00 </wgt>
   <wgt id='1019'>  +1.9747179e+00 </wgt>
   <wgt id='1020'>  +1.7833804e+00 </wgt>
   <wgt id='1021'>  +2.2133712e+00 </wgt>
   <wgt id='1022'>  +8.7998471e-01 </wgt>
   <wgt id='1023'>  +7.9473728e-01 </wgt>
   <wgt id='1024'>  +9.8632176e-01 </wgt>
   <wgt id='1025'>  +3.0694017e+00 </wgt>
   <wgt id='1026'>  +2.7720235e+00 </wgt>
   <wgt id='1027'>  +3.4403219e+00 </wgt>
</rwgt>
</event> 
<event>
  8      0 +5.7119646e+00 3.27900550e+01 7.54677110e-03 1.19900160e-01
       -2 -1    0    0    0  501 +0.00000000000e+00 +0.00000000000e+00 +1.44514591261e+01  1.44550015868e+01  3.20000000000e-01 0.0000e+00 1.0000e+00
        2 -1    0    0  501    0 +0.00000000000e+00 +0.00000000000e+00 -2.76018290061e+03  2.76018291916e+03  3.20000000000e-01 0.0000e+00 -1.0000e+00
       24  2    1    2    0    0 -6.80121925342e+00 +3.45335542881e-01 -2.64362753605e+03  2.64481720399e+03  7.90260546377e+01 0.0000e+00 0.0000e+00
      -11  1    3    3    0    0 +7.26318207785e+00 +2.54361468620e+01 -3.46034914342e+02  3.47044540837e+02  5.10999000000e-04 0.0000e+00 1.0000e+00
       12  1    3    3    0    0 -1.40644013313e+01 -2.50908113191e+01 -2.29759262171e+03  2.29777266316e+03  0.00000000000e+00 0.0000e+00 -1.0000e+00
      -24  2    1    2    0    0 +6.80121925342e+00 -3.45335542881e-01 -1.02103905426e+02  1.29820716750e+02  7.98863890426e+01 0.0000e+00 0.0000e+00
       11  1    6    6    0    0 +7.43763782560e+00 +5.29840310118e-01 -1.15821116281e+02  1.16060889898e+02  5.10999000000e-04 0.0000e+00 -1.0000e+00
      -12  1    6    6    0    0 -6.36418572182e-01 -8.75175853000e-01 +1.37172108544e+01  1.37598268520e+01  0.00000000000e+00 0.0000e+00 1.0000e+00
#aMCatNLO 1  0  0  2  1 0.11757582E+02 0.00000000E+00  9  5  0 0.00000000E+00 0.00000000E+00 0.00000000E+00 0.00000000E+00 0.00000000E+00
  <rwgt>
   <wgt id='1001'>  +5.7114796e+00 </wgt>
   <wgt id='1002'>  +5.4788519e+00 </wgt>
   <wgt id='1003'>  +5.9974487e+00 </wgt>
   <wgt id='1004'>  +7.3823492e+00 </wgt>
   <wgt id='1005'>  +6.9822888e+00 </wgt>
   <wgt id='1006'>  +7.8757570e+00 </wgt>
   <wgt id='1007'>  +4.0410546e+00 </wgt>
   <wgt id='1008'>  +3.9721059e+00 </wgt>
   <wgt id='1009'>  +4.1218075e+00 </wgt>
   <wgt id='1010'>  +3.1334114e+00 </wgt>
   <wgt id='1011'>  +3.1334114e+00 </wgt>
   <wgt id='1012'>  +3.1334114e+00 </wgt>
   <wgt id='1013'>  +3.0888614e+00 </wgt>
   <wgt id='1014'>  +3.0888614e+00 </wgt>
   <wgt id='1015'>  +3.0888614e+00 </wgt>
   <wgt id='1016'>  +3.1547973e+00 </wgt>
   <wgt id='1017'>  +3.1547973e+00 </wgt>
   <wgt id='1018'>  +3.1547973e+00 </wgt>
   <wgt id='1019'>  +2.5785128e+00 </wgt>
   <wgt id='1020'>  +2.3452924e+00 </wgt>
   <wgt id='1021'>  +2.8642843e+00 </wgt>
   <wgt id='1022'>  +4.2931420e+00 </wgt>
   <wgt id='1023'>  +3.8933780e+00 </wgt>
   <wgt id='1024'>  +4.7867968e+00 </wgt>
   <wgt id='1025'>  +8.8630666e-01 </wgt>
   <wgt id='1026'>  +8.1730858e-01 </wgt>
   <wgt id='1027'>  +9.6701020e-01 </wgt>
</rwgt>
</event> 
<event>
  9      0 +5.7119646e+00 8.41323610e+01 7.54677110e-03 1.15288420e-01
       21 -1    0    0  501  502 +0.00000000000e+00 +0.00000000000e+00 +1.09385289338e+01  1.09642106527e+01  7.50000000000e-01 0.0000e+00 -1.0000e+00
       -1 -1    0    0    0  501 +0.00000000000e+00 +0.00000000000e+00 -1.35370443736e+03  1.35370447518e+03  3.20000000000e-01 0.0000e+00 1.0000e+00
       24  2    1    2    0    0 -1.50539068712e+01 +1.71723888969e+01 -6.19947340047e+02  6.25454650409e+02  7.96071870761e+01 0.0000e+00 0.0000e+00
      -11  1    3    3    0    0 -4.47942129577e+01 +7.88513062989e+00 -4.76329741426e+02  4.78496310714e+02  5.10999000000e-04 0.0000e+00 1.0000e+00
       12  1    3    3    0    0 +2.97403060865e+01 +9.28725826703e+00 -1.43617598621e+02  1.46958339695e+02  0.00000000000e+00 0.0000e+00 -1.0000e+00
      -24  2    1    2    0    0 +3.56839323536e+01 +2.82714565955e+01 -3.06402038288e+02  3.19817361646e+02  7.95507225417e+01 0.0000e+00 0.0000e+00
       13  1    6    6    0    0 -6.09201700472e-01 +9.21019663288e+00 +1.36573446845e+00  9.33141162844e+00  1.05658000000e-01 0.0000e+00 -1.0000e+00
      -14  1    6    6    0    0 +3.62931340541e+01 +1.90612599626e+01 -3.07767772757e+02  3.10485950018e+02  0.00000000000e+00 0.0000e+00 1.0000e+00
       -1  1    1    2    0  502 -2.06300254824e+01 -4.54438454924e+01 -4.16416530090e+02  4.19396673779e+02  3.20000000000e-01 0.0000e+00 1.0000e+00
#aMCatNLO 2  0  0  1  1 0.49907325E+02 0.00000000E+00  9  5  0 0.00000000E+00 0.00000000E+00 0.00000000E+00 0.00000000E+00 0.00000000E+00
  <rwgt>
   <wgt id='1001'>  +5.7119735e+00 </wgt>
   <wgt id='1002'>  +5.1844865e+00 </wgt>
   <wgt id='1003'>  +6.3624421e+00 </wgt>
   <wgt id='1004'>  +5.7258028e+00 </wgt>
   <wgt id='1005'>  +5.1968340e+00 </wgt>
   <wgt id='1006'>  +6.3782470e+00 </wgt>
   <wgt id='1007'>  +5.5894859e+00 </wgt>
   <wgt id='1008'>  +5.0728647e+00 </wgt>
   <wgt id='1009'>  +6.2261252e+00 </wgt>
   <wgt id='1010'>  +0.0000000e+00 </wgt>
   <wgt id='1011'>  +0.0000000e+00 </wgt>
   <wgt id='1012'>  +0.0000000e+00 </wgt>
   <wgt id='1013'>  +0.0000000e+00 </wgt>
   <wgt id='1014'>  +0.0000000e+00 </wgt>
   <wgt id='1015'>  +0.0000000e+00 </wgt>
   <wgt id='1016'>  +0.0000000e+00 </wgt>
   <wgt id='1017'>  +0.0000000e+00 </wgt>
   <wgt id='1018'>  +0.0000000e+00 </wgt>
   <wgt id='1019'>  +5.7119735e+00 </wgt>
   <wgt id='1020'>  +5.1844865e+00 </wgt>
   <wgt id='1021'>  +6.3624421e+00 </wgt>
   <wgt id='1022'>  +5.7258028e+00 </wgt>
   <wgt id='1023'>  +5.1968340e+00 </wgt>
   <wgt id='1024'>  +6.3782470e+00 </wgt>
   <wgt id='1025'>  +5.5894859e+00 </wgt>
   <wgt id='1026'>  +5.0728647e+00 </wgt>
   <wgt id='1027'>  +6.2261252e+00 </wgt>
</rwgt>
</event> 
<event>
  8      0 +5.7119646e+00 3.20288690e+01 7.54677110e-03 1.14904950e-01
        2 -1    0    0  501    0 +0.00000000000e+00 +0.00000000000e+00 +9.73577700466e+02  9.73577753056e+02  3.20000000000e-01 0.0000e+00 -1.0000e+00
       -2 -1    0    0    0  501 +0.00000000000e+00 +0.00000000000e+00 -1.81721100674e+01  1.81749273534e+01  3.20000000000e-01 0.0000e+00 1.0000e+00
       24  2    1    2    0    0 -9.00780894233e+00 -1.16728160689e+01 +8.66598044891e+02  8.70858902925e+02  8.47682849724e+01 0.0000e+00 0.0000e+00
      -13  1    3    3    0    0 +1.43363222929e+01 -1.58455041172e+01 +5.63764662324e+01  6.02903578202e+01  1.05658000000e-01 0.0000e+00 1.0000e+00
       14  1    3    3    0    0 -2.33441312352e+01 +4.17268804833e+00 +8.10221578659e+02  8.10568545105e+02  0.00000000000e+00 0.0000e+00 -1.0000e+00
      -24  2    1    2    0    0 +9.00780894233e+00 +1.16728160689e+01 +8.88075455076e+01  1.20893777484e+02  8.06915735280e+01 0.0000e+00 0.0000e+00
       11  1    6    6    0    0 +1.03542900899e+01 -2.38211721394e+01 +8.02627175426e+01  8.43609115227e+01  5.10999000000e-04 0.0000e+00 -1.0000e+00
      -12  1    6    6    0    0 -1.34648114761e+00 +3.54939882083e+01 +8.54482796502e+00  3.65328659616e+01  0.00000000000e+00 0.0000e+00 1.0000e+00
#aMCatNLO 1  0  0  1  2 0.56586900E+02 0.00000000E+00  9  5  0 0.00000000E+00 0.00000000E+00 0.00000000E+00 0.00000000E+00 0.00000000E+00
  <rwgt>
   <wgt id='1001'>  +5.7119735e+00 </wgt>
   <wgt id='1002'>  +5.7258028e+00 </wgt>
   <wgt id='1003'>  +5.6936992e+00 </wgt>
   <wgt id='1004'>  +7.7947571e+00 </wgt>
   <wgt id='1005'>  +7.6352269e+00 </wgt>
   <wgt id='1006'>  +7.9923178e+00 </wgt>
   <wgt id='1007'>  +3.8578664e+00 </wgt>
   <wgt id='1008'>  +4.0162113e+00 </wgt>
   <wgt id='1009'>  +3.6595155e+00 </wgt>
   <wgt id='1010'>  +5.8186563e+00 </wgt>
   <wgt id='1011'>  +5.8186563e+00 </wgt>
   <wgt id='1012'>  +5.8186563e+00 </wgt>
   <wgt id='1013'>  +6.1061071e+00 </wgt>
   <wgt id='1014'>  +6.1061071e+00 </wgt>
   <wgt id='1015'>  +6.1061071e+00 </wgt>
   <wgt id='1016'>  +5.4610714e+00 </wgt>
   <wgt id='1017'>  +5.4610714e+00 </wgt>
   <wgt id='1018'>  +5.4610714e+00 </wgt>
   <wgt id='1019'>  -1.0696430e-01 </wgt>
   <wgt id='1020'>  -9.3080720e-02 </wgt>
   <wgt id='1021'>  -1.2531769e-01 </wgt>
   <wgt id='1022'>  +1.6884525e+00 </wgt>
   <wgt id='1023'>  +1.5289222e+00 </wgt>
   <wgt id='1024'>  +1.8862107e+00 </wgt>
   <wgt id='1025'>  -1.6029087e+00 </wgt>
   <wgt id='1026'>  -1.4446132e+00 </wgt>
   <wgt id='1027'>  -1.8012596e+00 </wgt>
</rwgt>
</event> 
<event>
  8      0 +5.7119646e+00 6.93280900e+01 7.54677110e-03 1.11952950e-01
        2 -1    0    0  501    0 +0.00000000000e+00 +0.00000000000e+00 +5.78085836049e+02  5.78085924617e+02  3.20000000000e-01 0.0000e+00 -1.0000e+00
       -2 -1    0    0    0  501 +0.00000000000e+00 +0.00000000000e+00 -4.64238115917e+01  4.64249144609e+01  3.20000000000e-01 0.0000e+00 1.0000e+00
       24  2    1    2    0    0 +5.32300217743e+01 +3.67181302833e+01 +5.07227338071e+02  5.17586295089e+02  8.02143632274e+01 0.0000e+00 0.0000e+00
      -13  1    3    3    0    0 +2.14854574113e+01 -1.95300580622e+00 +2.60901049589e+01  3.38547463767e+01  1.05658000000e-01 0.0000e+00 1.0000e+00
       14  1    3    3    0    0 +3.17445643630e+01 +3.86711360895e+01 +4.81137233112e+02  4.83731548712e+02  0.00000000000e+00 0.0000e+00 -1.0000e+00
      -24  2    1    2    0    0 -5.32300217743e+01 -3.67181302833e+01 +2.44346863866e+01  1.06924543989e+02  8.15729605867e+01 0.0000e+00 0.0000e+00
       11  1    6    6    0    0 +1.83493279591e+01 +4.15899158245e+00 +1.47924623021e+01  2.39334909437e+01  5.10999000000e-04 0.0000e+00 -1.0000e+00
      -12  1    6    6    0    0 -7.15793497334e+01 -4.08771218657e+01 +9.64222408448e+00  8.29910530454e+01  0.00000000000e+00 0.0000e+00 1.0000e+00
#aMCatNLO 1  0  0  2  1 0.60930887E+02 0.00000000E+00  9  5  0 0.00000000E+00 0.00000000E+00 0.00000000E+00 0.00000000E+00 0.00000000E+00
  <rwgt>
   <wgt id='1001'>  +5.7119735e+00 </wgt>
   <wgt id='1002'>  +5.6097359e+00 </wgt>
   <wgt id='1003'>  +5.8369307e+00 </wgt>
   <wgt id='1004'>  +5.8601440e+00 </wgt>
   <wgt id='1005'>  +5.7613637e+00 </wgt>
   <wgt id='1006'>  +5.9806561e+00 </wgt>
   <wgt id='1007'>  +5.6472724e+00 </wgt>
   <wgt id='1008'>  +5.5282421e+00 </wgt>
   <wgt id='1009'>  +5.7919856e+00 </wgt>
   <wgt id='1010'>  +4.5557990e+00 </wgt>
   <wgt id='1011'>  +4.5557990e+00 </wgt>
   <wgt id='1012'>  +4.5557990e+00 </wgt>
   <wgt id='1013'>  +4.7419999e+00 </wgt>
   <wgt id='1014'>  +4.7419999e+00 </wgt>
   <wgt id='1015'>  +4.7419999e+00 </wgt>
   <wgt id='1016'>  +4.3189237e+00 </wgt>
   <wgt id='1017'>  +4.3189237e+00 </wgt>
   <wgt id='1018'>  +4.3189237e+00 </wgt>
   <wgt id='1019'>  +1.1560264e+00 </wgt>
   <wgt id='1020'>  +1.0535418e+00 </wgt>
   <wgt id='1021'>  +1.2811317e+00 </wgt>
   <wgt id='1022'>  +1.1180453e+00 </wgt>
   <wgt id='1023'>  +1.0192650e+00 </wgt>
   <wgt id='1024'>  +1.2386068e+00 </wgt>
   <wgt id='1025'>  +1.3281018e+00 </wgt>
   <wgt id='1026'>  +1.2093184e+00 </wgt>
   <wgt id='1027'>  +1.4733583e+00 </wgt>
</rwgt>
</event> 
<event>
  8      0 +5.7119646e+00 9.39837780e+01 7.54677110e-03 1.11375600e-01
       -2 -1    0    0    0  501 +0.00000000000e+00 +0.00000000000e+00 +6.77303782298e+00  6.78059299409e+00  3.20000000000e-01 0.0000e+00 1.0000e+00
        2 -1    0    0  501    0 +0.00000000000e+00 +0.00000000000e+00 -1.98905281682e+03  1.98905284256e+03  3.20000000000e-01 0.0000e+00 -1.0000e+00
       24  2    1    2    0    0 +2.88483062568e+01 +8.00932258142e+01 -1.03787032414e+03  1.04449011369e+03  8.08556632630e+01 0.0000e+00 0.0000e+00
      -11  1    3    3    0    0 +2.11888767108e+01 +7.69516927092e+01 -4.82420521877e+02  4.88978620632e+02  5.10999000000e-04 0.0000e+00 1.0000e+00
       12  1    3    3    0    0 +7.65942954600e+00 +3.14153310499e+00 -5.55449802262e+02  5.55511493062e+02  0.00000000000e+00 0.0000e+00 -1.0000e+00
      -24  2    1    2    0    0 -2.88483062568e+01 -8.00932258142e+01 -9.44409454854e+02  9.51343321856e+02  7.67967969921e+01 0.0000e+00 0.0000e+00
       13  1    6    6    0    0 +1.56082668613e+01 -1.61307371805e+01 -4.73760376233e+02  4.74291813052e+02  1.05658000000e-01 0.0000e+00 -1.0000e+00
      -14  1    6    6    0    0 -4.44565731181e+01 -6.39624886338e+01 -4.70649078621e+02  4.77051508804e+02  0.00000000000e+00 0.0000e+00 1.0000e+00
#aMCatNLO 1  0  0  1  2 0.48972172E+02 0.00000000E+00  9  5  0 0.00000000E+00 0.00000000E+00 0.00000000E+00 0.00000000E+00 0.00000000E+00
  <rwgt>
   <wgt id='1001'>  +5.7119735e+00 </wgt>
   <wgt id='1002'>  +5.6981443e+00 </wgt>
   <wgt id='1003'>  +5.7228394e+00 </wgt>
   <wgt id='1004'>  +5.5129311e+00 </wgt>
   <wgt id='1005'>  +5.5302177e+00 </wgt>
   <wgt id='1006'>  +5.4857665e+00 </wgt>
   <wgt id='1007'>  +5.9376866e+00 </wgt>
   <wgt id='1008'>  +5.8853330e+00 </wgt>
   <wgt id='1009'>  +5.9969548e+00 </wgt>
   <wgt id='1010'>  +5.3316692e+00 </wgt>
   <wgt id='1011'>  +5.3316692e+00 </wgt>
   <wgt id='1012'>  +5.3316692e+00 </wgt>
   <wgt id='1013'>  +5.4684800e+00 </wgt>
   <wgt id='1014'>  +5.4684800e+00 </wgt>
   <wgt id='1015'>  +5.4684800e+00 </wgt>
   <wgt id='1016'>  +5.1410231e+00 </wgt>
   <wgt id='1017'>  +5.1410231e+00 </wgt>
   <wgt id='1018'>  +5.1410231e+00 </wgt>
   <wgt id='1019'>  +3.8042287e-01 </wgt>
   <wgt id='1020'>  +3.6663313e-01 </wgt>
   <wgt id='1021'>  +3.9144182e-01 </wgt>
   <wgt id='1022'>  +4.4562284e-02 </wgt>
   <wgt id='1023'>  +6.1777229e-02 </wgt>
   <wgt id='1024'>  +1.7356695e-02 </wgt>
   <wgt id='1025'>  +7.9691044e-01 </wgt>
   <wgt id='1026'>  +7.4435930e-01 </wgt>
   <wgt id='1027'>  +8.5573414e-01 </wgt>
</rwgt>
</event> 
<event>
  8      0 +5.7119646e+00 8.16434330e+01 7.54677110e-03 1.12772910e-01
       -1 -1    0    0    0  501 +0.00000000000e+00 +0.00000000000e+00 +1.26969337667e+01  1.27009655962e+01  3.20000000000e-01 0.0000e+00 1.0000e+00
        1 -1    0    0  501    0 +0.00000000000e+00 +0.00000000000e+00 -1.16292775351e+03  1.16292779754e+03  3.20000000000e-01 0.0000e+00 -1.0000e+00
       24  2    1    2    0    0 +5.67023228401e+01 -5.79853437462e+00 -2.32941314276e+02  2.53000509379e+02  8.06152927979e+01 0.0000e+00 0.0000e+00
      -13  1    3    3    0    0 +7.13520297048e+01 -8.52254008952e+00 -1.26204011340e+02  1.45228129074e+02  1.05658000000e-01 0.0000e+00 1.0000e+00
       14  1    3    3    0    0 -1.46497068647e+01 +2.72400571490e+00 -1.06737302936e+02  1.07772380304e+02  0.00000000000e+00 0.0000e+00 -1.0000e+00
      -24  2    1    2    0    0 -5.67023228401e+01 +5.79853437462e+00 -9.17289505472e+02  9.22628253759e+02  8.10807089825e+01 0.0000e+00 0.0000e+00
       11  1    6    6    0    0 -1.09002025574e+01 -6.07658233752e+00 -7.05799947739e+02  7.05910267313e+02  5.10999000000e-04 0.0000e+00 -1.0000e+00
      -12  1    6    6    0    0 -4.58021202827e+01 +1.18751167121e+01 -2.11489557733e+02  2.16717986446e+02  0.00000000000e+00 0.0000e+00 1.0000e+00
#aMCatNLO 1  0  0  1  2 0.56842912E+02 0.00000000E+00  9  5  0 0.00000000E+00 0.00000000E+00 0.00000000E+00 0.00000000E+00 0.00000000E+00
  <rwgt>
   <wgt id='1001'>  +5.7119735e+00 </wgt>
   <wgt id='1002'>  +5.6887601e+00 </wgt>
   <wgt id='1003'>  +5.7381503e+00 </wgt>
   <wgt id='1004'>  +5.6215895e+00 </wgt>
   <wgt id='1005'>  +5.6250468e+00 </wgt>
   <wgt id='1006'>  +5.6146749e+00 </wgt>
   <wgt id='1007'>  +5.8369307e+00 </wgt>
   <wgt id='1008'>  +5.7781564e+00 </wgt>
   <wgt id='1009'>  +5.9070647e+00 </wgt>
   <wgt id='1010'>  +5.3662423e+00 </wgt>
   <wgt id='1011'>  +5.3662423e+00 </wgt>
   <wgt id='1012'>  +5.3662423e+00 </wgt>
   <wgt id='1013'>  +5.5593579e+00 </wgt>
   <wgt id='1014'>  +5.5593579e+00 </wgt>
   <wgt id='1015'>  +5.5593579e+00 </wgt>
   <wgt id='1016'>  +5.1163280e+00 </wgt>
   <wgt id='1017'>  +5.1163280e+00 </wgt>
   <wgt id='1018'>  +5.1163280e+00 </wgt>
   <wgt id='1019'>  +3.4547932e-01 </wgt>
   <wgt id='1020'>  +3.2223631e-01 </wgt>
   <wgt id='1021'>  +3.7160178e-01 </wgt>
   <wgt id='1022'>  +6.2409423e-02 </wgt>
   <wgt id='1023'>  +6.5960576e-02 </wgt>
   <wgt id='1024'>  +5.5307116e-02 </wgt>
   <wgt id='1025'>  +7.2099775e-01 </wgt>
   <wgt id='1026'>  +6.6207527e-01 </wgt>
   <wgt id='1027'>  +7.9127996e-01 </wgt>
</rwgt>
</event> 
<event>
  9      0 +5.7119646e+00 1.02654720e+02 7.54677110e-03 1.04684430e-01
       21 -1    0    0  501  502 +0.00000000000e+00 +0.00000000000e+00 +3.61843421403e+02  3.61844198672e+02  7.50000000000e-01 0.0000e+00 1.0000e+00
       -2 -1    0    0    0  501 +0.00000000000e+00 +0.00000000000e+00 -3.13027058954e+02  3.13027222518e+02  3.20000000000e-01 0.0000e+00 1.0000e+00
       24  2    1    2    0    0 -2.73969685967e+00 -1.41425935273e+02 -1.83957796358e+02  2.46176243403e+02  8.21795039450e+01 0.0000e+00 0.0000e+00
      -11  1    3    3    0    0 -3.11098366257e+01 -1.23840456358e+02 -1.61789051555e+02  2.06106714517e+02  5.10999000000e-04 0.0000e+00 1.0000e+00
       12  1    3    3    0    0 +2.83701397660e+01 -1.75854789144e+01 -2.21687448032e+01  4.00695288859e+01  0.00000000000e+00 0.0000e+00 -1.0000e+00
      -24  2    1    2    0    0 -6.91691298468e+01 -2.11790432573e+01 -2.90429231594e+01  1.12215249181e+02  8.07208174264e+01 0.0000e+00 0.0000e+00
       11  1    6    6    0    0 -6.26771400825e+01 +3.87236509545e+00 -4.89045031856e+01  7.95931500347e+01  5.10999000000e-04 0.0000e+00 -1.0000e+00
      -12  1    6    6    0    0 -6.49198976430e+00 -2.50514083528e+01 +1.98615800261e+01  3.26220991460e+01  0.00000000000e+00 0.0000e+00 1.0000e+00
       -2  1    1    2    0  502 +7.19088267065e+01 +1.62604978530e+02 +2.61817081966e+02  3.16479928606e+02  3.20000000000e-01 0.0000e+00 1.0000e+00
#aMCatNLO 2  0  0  1  2 0.17805778E+03 0.00000000E+00  9  5  0 0.00000000E+00 0.00000000E+00 0.00000000E+00 0.00000000E+00 0.00000000E+00
  <rwgt>
   <wgt id='1001'>  +5.7119735e+00 </wgt>
   <wgt id='1002'>  +5.2304193e+00 </wgt>
   <wgt id='1003'>  +6.2937898e+00 </wgt>
   <wgt id='1004'>  +5.3632789e+00 </wgt>
   <wgt id='1005'>  +4.9109143e+00 </wgt>
   <wgt id='1006'>  +5.9095342e+00 </wgt>
   <wgt id='1007'>  +6.0512840e+00 </wgt>
   <wgt id='1008'>  +5.5410835e+00 </wgt>
   <wgt id='1009'>  +6.6676734e+00 </wgt>
   <wgt id='1010'>  +0.0000000e+00 </wgt>
   <wgt id='1011'>  +0.0000000e+00 </wgt>
   <wgt id='1012'>  +0.0000000e+00 </wgt>
   <wgt id='1013'>  +0.0000000e+00 </wgt>
   <wgt id='1014'>  +0.0000000e+00 </wgt>
   <wgt id='1015'>  +0.0000000e+00 </wgt>
   <wgt id='1016'>  +0.0000000e+00 </wgt>
   <wgt id='1017'>  +0.0000000e+00 </wgt>
   <wgt id='1018'>  +0.0000000e+00 </wgt>
   <wgt id='1019'>  +5.7119735e+00 </wgt>
   <wgt id='1020'>  +5.2304193e+00 </wgt>
   <wgt id='1021'>  +6.2937898e+00 </wgt>
   <wgt id='1022'>  +5.3632789e+00 </wgt>
   <wgt id='1023'>  +4.9109143e+00 </wgt>
   <wgt id='1024'>  +5.9095342e+00 </wgt>
   <wgt id='1025'>  +6.0512840e+00 </wgt>
   <wgt id='1026'>  +5.5410835e+00 </wgt>
   <wgt id='1027'>  +6.6676734e+00 </wgt>
</rwgt>
</event> 
<event>
  8      0 +5.7119646e+00 8.54150410e+01 7.54677110e-03 1.12418640e-01
       -2 -1    0    0    0  501 +0.00000000000e+00 +0.00000000000e+00 +1.68368293610e+02  1.68368597705e+02  3.20000000000e-01 0.0000e+00 1.0000e+00
        2 -1    0    0  501    0 +0.00000000000e+00 +0.00000000000e+00 -5.33999988135e+01  5.34009576064e+01  3.20000000000e-01 0.0000e+00 -1.0000e+00
       24  2    1    2    0    0 +1.26682523820e+01 +2.48596311792e+01 +1.08745218823e+01  8.68108237092e+01  8.14823785007e+01 0.0000e+00 0.0000e+00
      -13  1    3    3    0    0 -3.13789257936e+01 +1.55140673798e+01 +2.07778558730e+01  4.07069248275e+01  1.05658000000e-01 0.0000e+00 1.0000e+00
       14  1    3    3    0    0 +4.40471781756e+01 +9.34556379939e+00 -9.90333399065e+00  4.61038988817e+01  0.00000000000e+00 0.0000e+00 -1.0000e+00
      -24  2    1    2    0    0 -1.26682523820e+01 -2.48596311792e+01 +1.04093772915e+02  1.34958731603e+02  8.12395211421e+01 0.0000e+00 0.0000e+00
       13  1    6    6    0    0 +2.68157203292e+01 -3.21755623258e+01 +3.30601003298e+01  5.33603885404e+01  1.05658000000e-01 0.0000e+00 -1.0000e+00
      -14  1    6    6    0    0 -3.94839727113e+01 +7.31593114655e+00 +7.10336725847e+01  8.15983430621e+01  0.00000000000e+00 0.0000e+00 1.0000e+00
#aMCatNLO 1  0  0  2  2 0.79691637E+02 0.00000000E+00  9  5  0 0.00000000E+00 0.00000000E+00 0.00000000E+00 0.00000000E+00 0.00000000E+00
  <rwgt>
   <wgt id='1001'>  +5.7119735e+00 </wgt>
   <wgt id='1002'>  +5.6492480e+00 </wgt>
   <wgt id='1003'>  +5.7900100e+00 </wgt>
   <wgt id='1004'>  +6.0478267e+00 </wgt>
   <wgt id='1005'>  +5.9855951e+00 </wgt>
   <wgt id='1006'>  +6.1258632e+00 </wgt>
   <wgt id='1007'>  +5.2961083e+00 </wgt>
   <wgt id='1008'>  +5.2353584e+00 </wgt>
   <wgt id='1009'>  +5.3726630e+00 </wgt>
   <wgt id='1010'>  +5.0600232e+00 </wgt>
   <wgt id='1011'>  +5.0600232e+00 </wgt>
   <wgt id='1012'>  +5.0600232e+00 </wgt>
   <wgt id='1013'>  +5.3963703e+00 </wgt>
   <wgt id='1014'>  +5.3963703e+00 </wgt>
   <wgt id='1015'>  +5.3963703e+00 </wgt>
   <wgt id='1016'>  +4.6588269e+00 </wgt>
   <wgt id='1017'>  +4.6588269e+00 </wgt>
   <wgt id='1018'>  +4.6588269e+00 </wgt>
   <wgt id='1019'>  +6.5175272e-01 </wgt>
   <wgt id='1020'>  +5.8912598e-01 </wgt>
   <wgt id='1021'>  +7.2973981e-01 </wgt>
   <wgt id='1022'>  +6.5165394e-01 </wgt>
   <wgt id='1023'>  +5.8902720e-01 </wgt>
   <wgt id='1024'>  +7.2964103e-01 </wgt>
   <wgt id='1025'>  +6.3752835e-01 </wgt>
   <wgt id='1026'>  +5.7623515e-01 </wgt>
   <wgt id='1027'>  +7.1378678e-01 </wgt>
</rwgt>
</event> 
<event>
  9      0 +5.7119646e+00 1.39372680e+02 7.54677110e-03 1.06015530e-01
       21 -1    0    0  502  501 +0.00000000000e+00 +0.00000000000e+00 +2.77369484057e+01  2.77470864571e+01  7.50000000000e-01 0.0000e+00 -1.0000e+00
        2 -1    0    0  501    0 +0.00000000000e+00 +0.00000000000e+00 -2.39962681093e+03  2.39962683227e+03  3.20000000000e-01 0.0000e+00 -1.0000e+00
       24  2    1    2    0    0 +2.64861043321e+01 +6.45449587763e+01 -1.47716412402e+03  1.48122194195e+03  8.44809245696e+01 0.0000e+00 0.0000e+00
      -13  1    3    3    0    0 -2.14499005108e+01 +1.28579688070e+01 -8.01556369553e+02  8.01946413626e+02  1.05658000000e-01 0.0000e+00 1.0000e+00
       14  1    3    3    0    0 +4.79360048429e+01 +5.16869899693e+01 -6.75607754465e+02  6.79275528328e+02  0.00000000000e+00 0.0000e+00 -1.0000e+00
      -24  2    1    2    0    0 -1.28230539959e+02 -1.11447765994e+02 -6.57136092032e+02  6.83472046021e+02  8.02652995892e+01 0.0000e+00 0.0000e+00
       11  1    6    6    0    0 -2.59971552688e+01 -6.52939732491e+01 -1.77780014663e+02  1.91167174585e+02  5.10999000000e-04 0.0000e+00 -1.0000e+00
      -12  1    6    6    0    0 -1.02233384690e+02 -4.61537927451e+01 -4.79356077368e+02  4.92304871436e+02  0.00000000000e+00 0.0000e+00 1.0000e+00
        2  1    1    2  502    0 +1.01744435627e+02 +4.69028072180e+01 -2.37589646475e+02  2.62679930748e+02  3.20000000000e-01 0.0000e+00 -1.0000e+00
#aMCatNLO 2  0  0  1  2 0.11203483E+03 0.00000000E+00  9  5  0 0.00000000E+00 0.00000000E+00 0.00000000E+00 0.00000000E+00 0.00000000E+00
  <rwgt>
   <wgt id='1001'>  +5.7114796e+00 </wgt>
   <wgt id='1002'>  +5.2244925e+00 </wgt>
   <wgt id='1003'>  +6.3021861e+00 </wgt>
   <wgt id='1004'>  +5.4635410e+00 </wgt>
   <wgt id='1005'>  +4.9972977e+00 </wgt>
   <wgt id='1006'>  +6.0280706e+00 </wgt>
   <wgt id='1007'>  +5.8976806e+00 </wgt>
   <wgt id='1008'>  +5.3939008e+00 </wgt>
   <wgt id='1009'>  +6.5066614e+00 </wgt>
   <wgt id='1010'>  +0.0000000e+00 </wgt>
   <wgt id='1011'>  +0.0000000e+00 </wgt>
   <wgt id='1012'>  +0.0000000e+00 </wgt>
   <wgt id='1013'>  +0.0000000e+00 </wgt>
   <wgt id='1014'>  +0.0000000e+00 </wgt>
   <wgt id='1015'>  +0.0000000e+00 </wgt>
   <wgt id='1016'>  +0.0000000e+00 </wgt>
   <wgt id='1017'>  +0.0000000e+00 </wgt>
   <wgt id='1018'>  +0.0000000e+00 </wgt>
   <wgt id='1019'>  +5.7114796e+00 </wgt>
   <wgt id='1020'>  +5.2244925e+00 </wgt>
   <wgt id='1021'>  +6.3021861e+00 </wgt>
   <wgt id='1022'>  +5.4635410e+00 </wgt>
   <wgt id='1023'>  +4.9972977e+00 </wgt>
   <wgt id='1024'>  +6.0280706e+00 </wgt>
   <wgt id='1025'>  +5.8976806e+00 </wgt>
   <wgt id='1026'>  +5.3939008e+00 </wgt>
   <wgt id='1027'>  +6.5066614e+00 </wgt>
</rwgt>
</event> 
<event>
  9      0 +5.7119646e+00 1.14936020e+02 7.54677110e-03 1.07925920e-01
        4 -1    0    0  501    0 +0.00000000000e+00 +0.00000000000e+00 +1.23116903594e+02  1.23126660194e+02  1.55000000000e+00 0.0000e+00 -1.0000e+00
       21 -1    0    0  502  501 +0.00000000000e+00 +0.00000000000e+00 -3.90853060679e+02  3.90853780259e+02  7.50000000000e-01 0.0000e+00 -1.0000e+00
       24  2    1    2    0    0 +7.51459177976e+00 -9.04601967916e+01 -6.85416438704e-01  1.20768086328e+02  7.96551604506e+01 0.0000e+00 0.0000e+00
      -11  1    3    3    0    0 -2.60240386276e+01 -9.49039504397e+00 -1.57149037832e+01  3.18477061302e+01  5.10999000000e-04 0.0000e+00 1.0000e+00
       12  1    3    3    0    0 +3.35386304073e+01 -8.09698017477e+01 +1.50294873445e+01  8.89203801977e+01  0.00000000000e+00 0.0000e+00 -1.0000e+00
      -24  2    1    2    0    0 +9.08622146772e+01 +5.18348150480e+01 -3.22694304748e+01  1.35735010910e+02  8.02489061381e+01 0.0000e+00 0.0000e+00
       13  1    6    6    0    0 +3.50886701498e+01 -3.43621083988e+00 +2.08252036352e+01  4.09478032119e+01  1.05658000000e-01 0.0000e+00 -1.0000e+00
      -14  1    6    6    0    0 +5.57735445274e+01 +5.52710258879e+01 -5.30946341101e+01  9.47872076977e+01  0.00000000000e+00 0.0000e+00 1.0000e+00
        4  1    1    2  502    0 -9.83768064569e+01 +3.86253817436e+01 -2.34781310172e+02  2.57477343216e+02  1.55000000000e+00 0.0000e+00 -1.0000e+00
#aMCatNLO 2  0  0  2  1 0.10557169E+03 0.00000000E+00  9  5  0 0.00000000E+00 0.00000000E+00 0.00000000E+00 0.00000000E+00 0.00000000E+00
  <rwgt>
   <wgt id='1001'>  +5.7119735e+00 </wgt>
   <wgt id='1002'>  +5.2160962e+00 </wgt>
   <wgt id='1003'>  +6.3145336e+00 </wgt>
   <wgt id='1004'>  +5.6462846e+00 </wgt>
   <wgt id='1005'>  +5.1563341e+00 </wgt>
   <wgt id='1006'>  +6.2419301e+00 </wgt>
   <wgt id='1007'>  +5.6704858e+00 </wgt>
   <wgt id='1008'>  +5.1785597e+00 </wgt>
   <wgt id='1009'>  +6.2690947e+00 </wgt>
   <wgt id='1010'>  +0.0000000e+00 </wgt>
   <wgt id='1011'>  +0.0000000e+00 </wgt>
   <wgt id='1012'>  +0.0000000e+00 </wgt>
   <wgt id='1013'>  +0.0000000e+00 </wgt>
   <wgt id='1014'>  +0.0000000e+00 </wgt>
   <wgt id='1015'>  +0.0000000e+00 </wgt>
   <wgt id='1016'>  +0.0000000e+00 </wgt>
   <wgt id='1017'>  +0.0000000e+00 </wgt>
   <wgt id='1018'>  +0.0000000e+00 </wgt>
   <wgt id='1019'>  +5.7119735e+00 </wgt>
   <wgt id='1020'>  +5.2160962e+00 </wgt>
   <wgt id='1021'>  +6.3145336e+00 </wgt>
   <wgt id='1022'>  +5.6462846e+00 </wgt>
   <wgt id='1023'>  +5.1563341e+00 </wgt>
   <wgt id='1024'>  +6.2419301e+00 </wgt>
   <wgt id='1025'>  +5.6704858e+00 </wgt>
   <wgt id='1026'>  +5.1785597e+00 </wgt>
   <wgt id='1027'>  +6.2690947e+00 </wgt>
</rwgt>
</event> 
<event>
  9      0 +5.7119646e+00 9.21414040e+01 7.54677110e-03 1.01414800e-01
        2 -1    0    0  501    0 +0.00000000000e+00 +0.00000000000e+00 +2.46765061420e+02  2.46765268905e+02  3.20000000000e-01 0.0000e+00 -1.0000e+00
       21 -1    0    0  502  501 +0.00000000000e+00 +0.00000000000e+00 -6.02962454218e+02  6.02962920665e+02  7.50000000000e-01 0.0000e+00 -1.0000e+00
       24  2    1    2    0    0 +2.30183131648e+01 +4.91715941310e+01 -1.03932503252e+02  1.39741719406e+02  7.60137783549e+01 0.0000e+00 0.0000e+00
      -13  1    3    3    0    0 -2.00898897324e+01 +3.63721727886e+01 -2.38833952289e+01  4.79266768522e+01  1.05658000000e-01 0.0000e+00 1.0000e+00
       14  1    3    3    0    0 +4.31082028972e+01 +1.27994213425e+01 -8.00491080236e+01  9.18150425535e+01  0.00000000000e+00 0.0000e+00 -1.0000e+00
      -24  2    1    2    0    0 -1.71731715339e+01 +2.07690559024e+02 -3.65970111437e+02  4.29021505641e+02  8.18232467511e+01 0.0000e+00 0.0000e+00
       13  1    6    6    0    0 +2.02917312934e+01 +1.62117135674e+02 -2.45734181509e+02  2.95091543701e+02  1.05658000000e-01 0.0000e+00 -1.0000e+00
      -14  1    6    6    0    0 -3.74649028272e+01 +4.55734233498e+01 -1.20235929928e+02  1.33929961940e+02  0.00000000000e+00 0.0000e+00 1.0000e+00
        2  1    1    2  502    0 -5.84514163088e+00 -2.56862153155e+02 +1.13705221892e+02  2.80964964523e+02  3.20000000000e-01 0.0000e+00 -1.0000e+00
#aMCatNLO 2  0  0  2  1 0.25692865E+03 0.00000000E+00  9  5  0 0.00000000E+00 0.00000000E+00 0.00000000E+00 0.00000000E+00 0.00000000E+00
  <rwgt>
   <wgt id='1001'>  +5.7119735e+00 </wgt>
   <wgt id='1002'>  +5.2447425e+00 </wgt>
   <wgt id='1003'>  +6.2730459e+00 </wgt>
   <wgt id='1004'>  +5.3272241e+00 </wgt>
   <wgt id='1005'>  +4.8914052e+00 </wgt>
   <wgt id='1006'>  +5.8502660e+00 </wgt>
   <wgt id='1007'>  +6.1258632e+00 </wgt>
   <wgt id='1008'>  +5.6245529e+00 </wgt>
   <wgt id='1009'>  +6.7274355e+00 </wgt>
   <wgt id='1010'>  +0.0000000e+00 </wgt>
   <wgt id='1011'>  +0.0000000e+00 </wgt>
   <wgt id='1012'>  +0.0000000e+00 </wgt>
   <wgt id='1013'>  +0.0000000e+00 </wgt>
   <wgt id='1014'>  +0.0000000e+00 </wgt>
   <wgt id='1015'>  +0.0000000e+00 </wgt>
   <wgt id='1016'>  +0.0000000e+00 </wgt>
   <wgt id='1017'>  +0.0000000e+00 </wgt>
   <wgt id='1018'>  +0.0000000e+00 </wgt>
   <wgt id='1019'>  +5.7119735e+00 </wgt>
   <wgt id='1020'>  +5.2447425e+00 </wgt>
   <wgt id='1021'>  +6.2730459e+00 </wgt>
   <wgt id='1022'>  +5.3272241e+00 </wgt>
   <wgt id='1023'>  +4.8914052e+00 </wgt>
   <wgt id='1024'>  +5.8502660e+00 </wgt>
   <wgt id='1025'>  +6.1258632e+00 </wgt>
   <wgt id='1026'>  +5.6245529e+00 </wgt>
   <wgt id='1027'>  +6.7274355e+00 </wgt>
</rwgt>
</event> 
<event>
  8      0 +5.7119646e+00 4.96879410e+01 7.54677110e-03 1.17463200e-01
       -2 -1    0    0    0  501 +0.00000000000e+00 +0.00000000000e+00 +1.30755750028e+01  1.30794901145e+01  3.20000000000e-01 0.0000e+00 1.0000e+00
        2 -1    0    0  501    0 +0.00000000000e+00 +0.00000000000e+00 -6.97839677643e+02  6.97839751012e+02  3.20000000000e-01 0.0000e+00 -1.0000e+00
       24  2    1    2    0    0 +3.81891153219e+00 -3.52631220124e+01 -4.90062504110e+02  4.97858757255e+02  8.02746060777e+01 0.0000e+00 0.0000e+00
      -13  1    3    3    0    0 +1.45332537003e+01 +1.69001073098e+01 -5.20625648571e+01  5.66334787322e+01  1.05658000000e-01 0.0000e+00 1.0000e+00
       14  1    3    3    0    0 -1.07143421681e+01 -5.21632293221e+01 -4.37999939253e+02  4.41225278522e+02  0.00000000000e+00 0.0000e+00 -1.0000e+00
      -24  2    1    2    0    0 -3.81891153219e+00 +3.52631220124e+01 -1.94701598529e+02  2.13060483872e+02  7.89175864961e+01 0.0000e+00 0.0000e+00
       11  1    6    6    0    0 -3.10911114632e+01 +3.87242858729e+01 -1.66201964978e+02  1.73462735743e+02  5.10999000000e-04 0.0000e+00 -1.0000e+00
      -12  1    6    6    0    0 +2.72721999310e+01 -3.46116386052e+00 -2.84996335510e+01  3.95977481290e+01  0.00000000000e+00 0.0000e+00 1.0000e+00
#aMCatNLO 1  0  0  2  1 0.22451367E+02 0.00000000E+00  9  5  0 0.00000000E+00 0.00000000E+00 0.00000000E+00 0.00000000E+00 0.00000000E+00
  <rwgt>
   <wgt id='1001'>  +5.7119735e+00 </wgt>
   <wgt id='1002'>  +5.5993639e+00 </wgt>
   <wgt id='1003'>  +5.8468087e+00 </wgt>
   <wgt id='1004'>  +7.2445506e+00 </wgt>
   <wgt id='1005'>  +7.0153802e+00 </wgt>
   <wgt id='1006'>  +7.5245929e+00 </wgt>
   <wgt id='1007'>  +4.3597200e+00 </wgt>
   <wgt id='1008'>  +4.3416926e+00 </wgt>
   <wgt id='1009'>  +4.3775004e+00 </wgt>
   <wgt id='1010'>  +4.3600163e+00 </wgt>
   <wgt id='1011'>  +4.3600163e+00 </wgt>
   <wgt id='1012'>  +4.3600163e+00 </wgt>
   <wgt id='1013'>  +4.6648031e+00 </wgt>
   <wgt id='1014'>  +4.6648031e+00 </wgt>
   <wgt id='1015'>  +4.6648031e+00 </wgt>
   <wgt id='1016'>  +4.0045058e+00 </wgt>
   <wgt id='1017'>  +4.0045058e+00 </wgt>
   <wgt id='1018'>  +4.0045058e+00 </wgt>
   <wgt id='1019'>  +1.3519572e+00 </wgt>
   <wgt id='1020'>  +1.2393970e+00 </wgt>
   <wgt id='1021'>  +1.4867924e+00 </wgt>
   <wgt id='1022'>  +2.5799451e+00 </wgt>
   <wgt id='1023'>  +2.3505771e+00 </wgt>
   <wgt id='1024'>  +2.8598392e+00 </wgt>
   <wgt id='1025'>  +3.5527339e-01 </wgt>
   <wgt id='1026'>  +3.3717189e-01 </wgt>
   <wgt id='1027'>  +3.7295508e-01 </wgt>
</rwgt>
</event> 
<event>
  9      0 +5.7119646e+00 8.05803030e+01 7.54677110e-03 1.20024400e-01
       -2 -1    0    0    0  501 +0.00000000000e+00 +0.00000000000e+00 +1.36939281213e+01  1.36976664943e+01  3.20000000000e-01 0.0000e+00 1.0000e+00
        2 -1    0    0  502    0 +0.00000000000e+00 +0.00000000000e+00 -2.14452494979e+03  2.14452497366e+03  3.20000000000e-01 0.0000e+00 -1.0000e+00
       24  2    1    2    0    0 -3.01813270438e-01 +7.07453713542e+00 -1.96898806249e+03  1.97080819563e+03  8.43849130232e+01 0.0000e+00 0.0000e+00
      -13  1    3    3    0    0 +9.50206520006e+00 -6.87730818502e+00 -3.85578990412e+01  4.03027214097e+01  1.05658000000e-01 0.0000e+00 1.0000e+00
       14  1    3    3    0    0 -9.80387847050e+00 +1.39518453204e+01 -1.93043016345e+03  1.93050547422e+03  0.00000000000e+00 0.0000e+00 -1.0000e+00
      -24  2    1    2    0    0 +7.70733010617e+00 +9.22794126857e-01 -1.25268945476e+02  1.49243513642e+02  8.07531001075e+01 0.0000e+00 0.0000e+00
       11  1    6    6    0    0 -5.45052530546e+00 -2.78271261571e+01 -1.05625417548e+01  3.02592872496e+01  5.10999000000e-04 0.0000e+00 -1.0000e+00
      -12  1    6    6    0    0 +1.31578554116e+01 +2.87499202840e+01 -1.14706403722e+02  1.18984226392e+02  0.00000000000e+00 0.0000e+00 1.0000e+00
       21  1    1    2  502  501 -7.40551683573e+00 -7.99733126227e+00 -3.65740137009e+01  3.81709308914e+01  7.50000000000e-01 0.0000e+00 -1.0000e+00
#aMCatNLO 2  0  0  2  1 0.10899495E+02 0.00000000E+00  9  5  0 0.00000000E+00 0.00000000E+00 0.00000000E+00 0.00000000E+00 0.00000000E+00
  <rwgt>
   <wgt id='1001'>  +5.7114796e+00 </wgt>
   <wgt id='1002'>  +5.1647304e+00 </wgt>
   <wgt id='1003'>  +6.3930640e+00 </wgt>
   <wgt id='1004'>  +5.7554369e+00 </wgt>
   <wgt id='1005'>  +5.2037486e+00 </wgt>
   <wgt id='1006'>  +6.4414664e+00 </wgt>
   <wgt id='1007'>  +5.6122054e+00 </wgt>
   <wgt id='1008'>  +5.0743464e+00 </wgt>
   <wgt id='1009'>  +6.2814422e+00 </wgt>
   <wgt id='1010'>  +0.0000000e+00 </wgt>
   <wgt id='1011'>  +0.0000000e+00 </wgt>
   <wgt id='1012'>  +0.0000000e+00 </wgt>
   <wgt id='1013'>  +0.0000000e+00 </wgt>
   <wgt id='1014'>  +0.0000000e+00 </wgt>
   <wgt id='1015'>  +0.0000000e+00 </wgt>
   <wgt id='1016'>  +0.0000000e+00 </wgt>
   <wgt id='1017'>  +0.0000000e+00 </wgt>
   <wgt id='1018'>  +0.0000000e+00 </wgt>
   <wgt id='1019'>  +5.7114796e+00 </wgt>
   <wgt id='1020'>  +5.1647304e+00 </wgt>
   <wgt id='1021'>  +6.3930640e+00 </wgt>
   <wgt id='1022'>  +5.7554369e+00 </wgt>
   <wgt id='1023'>  +5.2037486e+00 </wgt>
   <wgt id='1024'>  +6.4414664e+00 </wgt>
   <wgt id='1025'>  +5.6122054e+00 </wgt>
   <wgt id='1026'>  +5.0743464e+00 </wgt>
   <wgt id='1027'>  +6.2814422e+00 </wgt>
</rwgt>
</event> 
<event>
  8      0 +5.7119646e+00 5.55411780e+01 7.54677110e-03 1.19805600e-01
       -2 -1    0    0    0  501 +0.00000000000e+00 +0.00000000000e+00 +1.62404436531e+01  1.62435959704e+01  3.20000000000e-01 0.0000e+00 1.0000e+00
        2 -1    0    0  501    0 +0.00000000000e+00 +0.00000000000e+00 -1.30624406818e+03  1.30624410738e+03  3.20000000000e-01 0.0000e+00 -1.0000e+00
       24  2    1    2    0    0 +2.67355842827e+01 -1.34895421753e+01 -1.17692033461e+03  1.18023312568e+03  8.31384249265e+01 0.0000e+00 0.0000e+00
      -13  1    3    3    0    0 -1.54918023017e+01 -2.30485855437e+01 -1.60051743968e+02  1.62443236686e+02  1.05658000000e-01 0.0000e+00 1.0000e+00
       14  1    3    3    0    0 +4.22273865844e+01 +9.55904336838e+00 -1.01686859065e+03  1.01778988899e+03  0.00000000000e+00 0.0000e+00 -1.0000e+00
      -24  2    1    2    0    0 -2.67355842827e+01 +1.34895421753e+01 -1.13083289912e+02  1.42254577671e+02  8.09430367344e+01 0.0000e+00 0.0000e+00
       11  1    6    6    0    0 -2.11390974234e+01 +7.38295250777e+00 -1.25415573391e+02  1.27398726355e+02  5.10999000000e-04 0.0000e+00 -1.0000e+00
      -12  1    6    6    0    0 -5.59648685929e+00 +6.10658966752e+00 +1.23322834783e+01  1.48558513160e+01  0.00000000000e+00 0.0000e+00 1.0000e+00
#aMCatNLO 1  0  0  2  1 0.22501011E+01 0.00000000E+00  9  5  0 0.00000000E+00 0.00000000E+00 0.00000000E+00 0.00000000E+00 0.00000000E+00
  <rwgt>
   <wgt id='1001'>  +5.7114796e+00 </wgt>
   <wgt id='1002'>  +5.3820472e+00 </wgt>
   <wgt id='1003'>  +6.1194424e+00 </wgt>
   <wgt id='1004'>  +6.7936183e+00 </wgt>
   <wgt id='1005'>  +6.3673811e+00 </wgt>
   <wgt id='1006'>  +7.3196237e+00 </wgt>
   <wgt id='1007'>  +4.6815463e+00 </wgt>
   <wgt id='1008'>  +4.4399790e+00 </wgt>
   <wgt id='1009'>  +4.9790234e+00 </wgt>
   <wgt id='1010'>  +2.1648207e+00 </wgt>
   <wgt id='1011'>  +2.1648207e+00 </wgt>
   <wgt id='1012'>  +2.1648207e+00 </wgt>
   <wgt id='1013'>  +2.2437462e+00 </wgt>
   <wgt id='1014'>  +2.2437462e+00 </wgt>
   <wgt id='1015'>  +2.2437462e+00 </wgt>
   <wgt id='1016'>  +2.0606074e+00 </wgt>
   <wgt id='1017'>  +2.0606074e+00 </wgt>
   <wgt id='1018'>  +2.0606074e+00 </wgt>
   <wgt id='1019'>  +3.5471528e+00 </wgt>
   <wgt id='1020'>  +3.2171771e+00 </wgt>
   <wgt id='1021'>  +3.9544736e+00 </wgt>
   <wgt id='1022'>  +4.5498227e+00 </wgt>
   <wgt id='1023'>  +4.1239807e+00 </wgt>
   <wgt id='1024'>  +5.0763220e+00 </wgt>
   <wgt id='1025'>  +2.6209389e+00 </wgt>
   <wgt id='1026'>  +2.3793716e+00 </wgt>
   <wgt id='1027'>  +2.9184159e+00 </wgt>
</rwgt>
</event> 
<event>
  8      0 +5.7119646e+00 7.11261710e+01 7.54677110e-03 1.16531730e-01
       -1 -1    0    0    0  501 +0.00000000000e+00 +0.00000000000e+00 +1.30441233120e+01  1.30480478608e+01  3.20000000000e-01 0.0000e+00 1.0000e+00
        1 -1    0    0  501    0 +0.00000000000e+00 +0.00000000000e+00 -5.23310537171e+02  5.23310635009e+02  3.20000000000e-01 0.0000e+00 -1.0000e+00
       24  2    1    2    0    0 +8.20795996374e+00 +2.31008963070e+01 -2.09764315901e+02  2.23762806836e+02  7.39439211887e+01 0.0000e+00 0.0000e+00
      -11  1    3    3    0    0 +3.28507912569e+01 +3.19947961780e+01 -1.70511024475e+02  1.76569677285e+02  5.10999000000e-04 0.0000e+00 1.0000e+00
       12  1    3    3    0    0 -2.46428312931e+01 -8.89389987105e+00 -3.92532914255e+01  4.71931295507e+01  0.00000000000e+00 0.0000e+00 -1.0000e+00
      -24  2    1    2    0    0 -8.20795996374e+00 -2.31008963070e+01 -3.00502097958e+02  3.12595876034e+02  8.25448291513e+01 0.0000e+00 0.0000e+00
       13  1    6    6    0    0 +2.92433794933e+01 -2.92980025460e+01 -9.51488600365e+01  1.03763504794e+02  1.05658000000e-01 0.0000e+00 -1.0000e+00
      -14  1    6    6    0    0 -3.74513394570e+01 +6.19710623902e+00 -2.05353237921e+02  2.08832371240e+02  0.00000000000e+00 0.0000e+00 1.0000e+00
#aMCatNLO 1  0  0  2  1 0.40312705E+02 0.00000000E+00  9  5  0 0.00000000E+00 0.00000000E+00 0.00000000E+00 0.00000000E+00 0.00000000E+00
  <rwgt>
   <wgt id='1001'>  +5.7119735e+00 </wgt>
   <wgt id='1002'>  +5.5435530e+00 </wgt>
   <wgt id='1003'>  +5.9204001e+00 </wgt>
   <wgt id='1004'>  +7.2322031e+00 </wgt>
   <wgt id='1005'>  +6.9447522e+00 </wgt>
   <wgt id='1006'>  +7.5897879e+00 </wgt>
   <wgt id='1007'>  +4.3589297e+00 </wgt>
   <wgt id='1008'>  +4.2894378e+00 </wgt>
   <wgt id='1009'>  +4.4443747e+00 </wgt>
   <wgt id='1010'>  +3.9259261e+00 </wgt>
   <wgt id='1011'>  +3.9259261e+00 </wgt>
   <wgt id='1012'>  +3.9259261e+00 </wgt>
   <wgt id='1013'>  +4.2068574e+00 </wgt>
   <wgt id='1014'>  +4.2068574e+00 </wgt>
   <wgt id='1015'>  +4.2068574e+00 </wgt>
   <wgt id='1016'>  +3.5985186e+00 </wgt>
   <wgt id='1017'>  +3.5985186e+00 </wgt>
   <wgt id='1018'>  +3.5985186e+00 </wgt>
   <wgt id='1019'>  +1.7860474e+00 </wgt>
   <wgt id='1020'>  +1.6177257e+00 </wgt>
   <wgt id='1021'>  +1.9946221e+00 </wgt>
   <wgt id='1022'>  +3.0254938e+00 </wgt>
   <wgt id='1023'>  +2.7375985e+00 </wgt>
   <wgt id='1024'>  +3.3830293e+00 </wgt>
   <wgt id='1025'>  +7.6041111e-01 </wgt>
   <wgt id='1026'>  +6.9091913e-01 </wgt>
   <wgt id='1027'>  +8.4585610e-01 </wgt>
</rwgt>
</event> 
<event>
  8      0 +5.7119646e+00 8.28644430e+01 7.54677110e-03 1.03052680e-01
       -4 -1    0    0    0  501 +0.00000000000e+00 +0.00000000000e+00 +1.32789565657e+01  1.33691131895e+01  1.55000000000e+00 0.0000e+00 1.0000e+00
        4 -1    0    0  501    0 +0.00000000000e+00 +0.00000000000e+00 -5.73957853930e+02  5.73959946850e+02  1.55000000000e+00 0.0000e+00 -1.0000e+00
       24  2    1    2    0    0 +4.98670132058e+00 +2.00523639874e+01 -1.88221007602e+02  2.06189356382e+02  8.16084462000e+01 0.0000e+00 0.0000e+00
      -11  1    3    3    0    0 -6.55500625754e+00 -2.37024247005e+01 -1.30744364836e+02  1.33037069948e+02  5.10999000000e-04 0.0000e+00 1.0000e+00
       12  1    3    3    0    0 +1.15417075781e+01 +4.37547886879e+01 -5.74766427658e+01  7.31522864343e+01  0.00000000000e+00 0.0000e+00 -1.0000e+00
      -24  2    1    2    0    0 -4.98670132058e+00 -2.00523639874e+01 -3.72457889762e+02  3.81139703657e+02  7.82024907913e+01 0.0000e+00 0.0000e+00
       11  1    6    6    0    0 -2.94326974223e+01 +1.97869673605e+00 -3.01299646743e+02  3.02740278203e+02  5.10999000000e-04 0.0000e+00 -1.0000e+00
      -12  1    6    6    0    0 +2.44459961017e+01 -2.20310607235e+01 -7.11582430188e+01  7.83994254540e+01  0.00000000000e+00 0.0000e+00 1.0000e+00
#aMCatNLO 1  0  0  1  2 0.22595966E+03 0.00000000E+00  9  5  0 0.00000000E+00 0.00000000E+00 0.00000000E+00 0.00000000E+00 0.00000000E+00
  <rwgt>
   <wgt id='1001'>  +5.7119735e+00 </wgt>
   <wgt id='1002'>  +5.6556687e+00 </wgt>
   <wgt id='1003'>  +5.7826015e+00 </wgt>
   <wgt id='1004'>  +6.4997468e+00 </wgt>
   <wgt id='1005'>  +6.4394908e+00 </wgt>
   <wgt id='1006'>  +6.5748198e+00 </wgt>
   <wgt id='1007'>  +4.7999840e+00 </wgt>
   <wgt id='1008'>  +4.7495072e+00 </wgt>
   <wgt id='1009'>  +4.8630058e+00 </wgt>
   <wgt id='1010'>  +5.1262061e+00 </wgt>
   <wgt id='1011'>  +5.1262061e+00 </wgt>
   <wgt id='1012'>  +5.1262061e+00 </wgt>
   <wgt id='1013'>  +5.8759489e+00 </wgt>
   <wgt id='1014'>  +5.8759489e+00 </wgt>
   <wgt id='1015'>  +5.8759489e+00 </wgt>
   <wgt id='1016'>  +4.2766951e+00 </wgt>
   <wgt id='1017'>  +4.2766951e+00 </wgt>
   <wgt id='1018'>  +4.2766951e+00 </wgt>
   <wgt id='1019'>  +5.8586623e-01 </wgt>
   <wgt id='1020'>  +5.2931449e-01 </wgt>
   <wgt id='1021'>  +6.5634601e-01 </wgt>
   <wgt id='1022'>  +6.2409423e-01 </wgt>
   <wgt id='1023'>  +5.6388761e-01 </wgt>
   <wgt id='1024'>  +6.9916729e-01 </wgt>
   <wgt id='1025'>  +5.2333827e-01 </wgt>
   <wgt id='1026'>  +4.7283188e-01 </wgt>
   <wgt id='1027'>  +5.8631075e-01 </wgt>
</rwgt>
</event> 
<event>
  8      0 +5.7119646e+00 3.71086470e+01 7.54677110e-03 1.17231280e-01
       -1 -1    0    0    0  501 +0.00000000000e+00 +0.00000000000e+00 +6.42829675072e+02  6.42829754720e+02  3.20000000000e-01 0.0000e+00 1.0000e+00
        1 -1    0    0  501    0 +0.00000000000e+00 +0.00000000000e+00 -1.22892739739e+01  1.22934395027e+01  3.20000000000e-01 0.0000e+00 -1.0000e+00
       24  2    1    2    0    0 -2.39912561867e+01 +5.20181634621e+00 +2.11984987262e+02  2.28447562998e+02  8.15353601125e+01 0.0000e+00 0.0000e+00
      -13  1    3    3    0    0 -5.36005685166e+01 +9.00595370991e+00 +1.52411373561e+02  1.61812750121e+02  1.05658000000e-01 0.0000e+00 1.0000e+00
       14  1    3    3    0    0 +2.96093123299e+01 -3.80413736371e+00 +5.95736137015e+01  6.66348128772e+01  0.00000000000e+00 0.0000e+00 -1.0000e+00
      -24  2    1    2    0    0 +2.39912561867e+01 -5.20181634621e+00 +4.18555413836e+02  4.26675631225e+02  7.91253471550e+01 0.0000e+00 0.0000e+00
       11  1    6    6    0    0 +4.59939192477e+01 +1.90119984104e+01 +2.71610102029e+02  2.76132113699e+02  5.10999000000e-04 0.0000e+00 -1.0000e+00
      -12  1    6    6    0    0 -2.20026630610e+01 -2.42138147566e+01 +1.46945311808e+02  1.50543517526e+02  0.00000000000e+00 0.0000e+00 1.0000e+00
#aMCatNLO 1  0  0  2  1 0.30565256E+02 0.00000000E+00  9  5  0 0.00000000E+00 0.00000000E+00 0.00000000E+00 0.00000000E+00 0.00000000E+00
  <rwgt>
   <wgt id='1001'>  +5.7119735e+00 </wgt>
   <wgt id='1002'>  +5.6304797e+00 </wgt>
   <wgt id='1003'>  +5.8058149e+00 </wgt>
   <wgt id='1004'>  +5.7386442e+00 </wgt>
   <wgt id='1005'>  +5.6793760e+00 </wgt>
   <wgt id='1006'>  +5.8058149e+00 </wgt>
   <wgt id='1007'>  +5.6774004e+00 </wgt>
   <wgt id='1008'>  +5.5687420e+00 </wgt>
   <wgt id='1009'>  +5.8048270e+00 </wgt>
   <wgt id='1010'>  +4.6175367e+00 </wgt>
   <wgt id='1011'>  +4.6175367e+00 </wgt>
   <wgt id='1012'>  +4.6175367e+00 </wgt>
   <wgt id='1013'>  +4.8613266e+00 </wgt>
   <wgt id='1014'>  +4.8613266e+00 </wgt>
   <wgt id='1015'>  +4.8613266e+00 </wgt>
   <wgt id='1016'>  +4.3165530e+00 </wgt>
   <wgt id='1017'>  +4.3165530e+00 </wgt>
   <wgt id='1018'>  +4.3165530e+00 </wgt>
   <wgt id='1019'>  +1.0942393e+00 </wgt>
   <wgt id='1020'>  +1.0128937e+00 </wgt>
   <wgt id='1021'>  +1.1882782e+00 </wgt>
   <wgt id='1022'>  +8.7761399e-01 </wgt>
   <wgt id='1023'>  +8.1800005e-01 </wgt>
   <wgt id='1024'>  +9.4438950e-01 </wgt>
   <wgt id='1025'>  +1.3605017e+00 </wgt>
   <wgt id='1026'>  +1.2523372e+00 </wgt>
   <wgt id='1027'>  +1.4883729e+00 </wgt>
</rwgt>
</event> 
<event>
  8      0 +5.7119646e+00 9.09772560e+01 7.54677110e-03 1.02845660e-01
       -1 -1    0    0    0  501 +0.00000000000e+00 +0.00000000000e+00 +5.01765372948e+01  5.01775576816e+01  3.20000000000e-01 0.0000e+00 1.0000e+00
        1 -1    0    0  501    0 +0.00000000000e+00 +0.00000000000e+00 -2.22435838885e+02  2.22436069063e+02  3.20000000000e-01 0.0000e+00 -1.0000e+00
       24  2    1    2    0    0 +4.11067339761e+01 -4.96076921963e+00 -1.89436377238e+01  9.47260889388e+01  8.30650209535e+01 0.0000e+00 0.0000e+00
      -13  1    3    3    0    0 +1.55152539725e+01 -7.87610882661e+00 +3.26856057848e+01  3.70285860547e+01  1.05658000000e-01 0.0000e+00 1.0000e+00
       14  1    3    3    0    0 +2.55914800036e+01 +2.91533960698e+00 -5.16292435085e+01  5.76975028841e+01  0.00000000000e+00 0.0000e+00 -1.0000e+00
      -24  2    1    2    0    0 -4.11067339761e+01 +4.96076921963e+00 -1.53315663866e+02  1.77887537806e+02  8.01493013729e+01 0.0000e+00 0.0000e+00
       13  1    6    6    0    0 +1.84131370483e+01 +1.39489241659e+01 -7.86897077122e+01  8.20103491322e+01  1.05658000000e-01 0.0000e+00 -1.0000e+00
      -14  1    6    6    0    0 -5.95198710245e+01 -8.98815494628e+00 -7.46259561539e+01  9.58771886738e+01  0.00000000000e+00 0.0000e+00 1.0000e+00
#aMCatNLO 1  0  0  1  1 0.22540896E+03 0.00000000E+00  9  5  0 0.00000000E+00 0.00000000E+00 0.00000000E+00 0.00000000E+00 0.00000000E+00
  <rwgt>
   <wgt id='1001'>  +5.7119735e+00 </wgt>
   <wgt id='1002'>  +5.5766444e+00 </wgt>
   <wgt id='1003'>  +5.8799001e+00 </wgt>
   <wgt id='1004'>  +5.2081938e+00 </wgt>
   <wgt id='1005'>  +5.1454682e+00 </wgt>
   <wgt id='1006'>  +5.2862302e+00 </wgt>
   <wgt id='1007'>  +6.1930338e+00 </wgt>
   <wgt id='1008'>  +5.9831256e+00 </wgt>
   <wgt id='1009'>  +6.4543078e+00 </wgt>
   <wgt id='1010'>  +4.2928457e+00 </wgt>
   <wgt id='1011'>  +4.2928457e+00 </wgt>
   <wgt id='1012'>  +4.2928457e+00 </wgt>
   <wgt id='1013'>  +4.5459703e+00 </wgt>
   <wgt id='1014'>  +4.5459703e+00 </wgt>
   <wgt id='1015'>  +4.5459703e+00 </wgt>
   <wgt id='1016'>  +3.9880095e+00 </wgt>
   <wgt id='1017'>  +3.9880095e+00 </wgt>
   <wgt id='1018'>  +3.9880095e+00 </wgt>
   <wgt id='1019'>  +1.4191278e+00 </wgt>
   <wgt id='1020'>  +1.2839963e+00 </wgt>
   <wgt id='1021'>  +1.5869557e+00 </wgt>
   <wgt id='1022'>  +6.6222344e-01 </wgt>
   <wgt id='1023'>  +5.9915219e-01 </wgt>
   <wgt id='1024'>  +7.4050687e-01 </wgt>
   <wgt id='1025'>  +2.2051724e+00 </wgt>
   <wgt id='1026'>  +1.9952148e+00 </wgt>
   <wgt id='1027'>  +2.4660020e+00 </wgt>
</rwgt>
</event> 
<event>
  9      0 +5.7119646e+00 8.25689210e+01 7.54677110e-03 1.18916660e-01
       -1 -1    0    0    0  501 +0.00000000000e+00 +0.00000000000e+00 +1.00497500515e+02  1.00498009980e+02  3.20000000000e-01 0.0000e+00 1.0000e+00
        1 -1    0    0  502    0 +0.00000000000e+00 +0.00000000000e+00 -9.68628226419e+01  9.68633512230e+01  3.20000000000e-01 0.0000e+00 -1.0000e+00
       24  2    1    2    0    0 -2.41555589636e+01 -1.28198636764e+01 +3.52469771510e+01  9.24198859724e+01  8.09397676754e+01 0.0000e+00 0.0000e+00
      -13  1    3    3    0    0 -3.26815030806e+01 -4.29347175928e+01 +1.94130700101e+01  5.73441284633e+01  1.05658000000e-01 0.0000e+00 1.0000e+00
       14  1    3    3    0    0 +8.52594411700e+00 +3.01148539164e+01 +1.58339071409e+01  3.50757575092e+01  0.00000000000e+00 0.0000e+00 -1.0000e+00
      -24  2    1    2    0    0 +1.90578194881e+01 -2.99295748948e+00 -3.57392440949e+01  8.78059438842e+01  7.78487760645e+01 0.0000e+00 0.0000e+00
       13  1    6    6    0    0 +3.73089398115e+01 +2.63034498448e+01 -1.90119798838e+01  4.94499242296e+01  1.05658000000e-01 0.0000e+00 -1.0000e+00
      -14  1    6    6    0    0 -1.82511203234e+01 -2.92964073343e+01 -1.67272642111e+01  3.83560196546e+01  0.00000000000e+00 0.0000e+00 1.0000e+00
       21  1    1    2  502  501 +5.09773947545e+00 +1.58128211658e+01 +4.12694481733e+00  1.71355313459e+01  7.50000000000e-01 0.0000e+00 1.0000e+00
#aMCatNLO 2  0  0  2  1 0.17190453E+02 0.00000000E+00  9  5  0 0.00000000E+00 0.00000000E+00 0.00000000E+00 0.00000000E+00 0.00000000E+00
  <rwgt>
   <wgt id='1001'>  +5.7119735e+00 </wgt>
   <wgt id='1002'>  +5.1686816e+00 </wgt>
   <wgt id='1003'>  +6.3866433e+00 </wgt>
   <wgt id='1004'>  +6.0799303e+00 </wgt>
   <wgt id='1005'>  +5.5015714e+00 </wgt>
   <wgt id='1006'>  +6.7980634e+00 </wgt>
   <wgt id='1007'>  +5.2724010e+00 </wgt>
   <wgt id='1008'>  +4.7704980e+00 </wgt>
   <wgt id='1009'>  +5.8947172e+00 </wgt>
   <wgt id='1010'>  +0.0000000e+00 </wgt>
   <wgt id='1011'>  +0.0000000e+00 </wgt>
   <wgt id='1012'>  +0.0000000e+00 </wgt>
   <wgt id='1013'>  +0.0000000e+00 </wgt>
   <wgt id='1014'>  +0.0000000e+00 </wgt>
   <wgt id='1015'>  +0.0000000e+00 </wgt>
   <wgt id='1016'>  +0.0000000e+00 </wgt>
   <wgt id='1017'>  +0.0000000e+00 </wgt>
   <wgt id='1018'>  +0.0000000e+00 </wgt>
   <wgt id='1019'>  +5.7119735e+00 </wgt>
   <wgt id='1020'>  +5.1686816e+00 </wgt>
   <wgt id='1021'>  +6.3866433e+00 </wgt>
   <wgt id='1022'>  +6.0799303e+00 </wgt>
   <wgt id='1023'>  +5.5015714e+00 </wgt>
   <wgt id='1024'>  +6.7980634e+00 </wgt>
   <wgt id='1025'>  +5.2724010e+00 </wgt>
   <wgt id='1026'>  +4.7704980e+00 </wgt>
   <wgt id='1027'>  +5.8947172e+00 </wgt>
</rwgt>
</event> 
<event>
  9      0 +5.7119646e+00 1.02772300e+02 7.54677110e-03 1.07396840e-01
       21 -1    0    0  502  501 +0.00000000000e+00 +0.00000000000e+00 +9.46101517015e+01  9.46131243802e+01  7.50000000000e-01 0.0000e+00 1.0000e+00
        2 -1    0    0  501    0 +0.00000000000e+00 +0.00000000000e+00 -6.90481933117e+02  6.90482007268e+02  3.20000000000e-01 0.0000e+00 -1.0000e+00
       24  2    1    2    0    0 -1.44099770231e+01 -5.21947491616e+00 -3.03542984899e+02  3.11871838462e+02  6.99343233893e+01 0.0000e+00 0.0000e+00
      -11  1    3    3    0    0 -2.65196754758e+01 +2.42708073551e+01 -2.09764736368e+02  2.12822954356e+02  5.10999000000e-04 0.0000e+00 1.0000e+00
       12  1    3    3    0    0 +1.21096984528e+01 -2.94902822713e+01 -9.37782485308e+01  9.90488841056e+01  0.00000000000e+00 0.0000e+00 -1.0000e+00
      -24  2    1    2    0    0 -5.73628071198e+00 +1.36766802992e+02 -7.36460366862e+00  1.58715320585e+02  7.99890760286e+01 0.0000e+00 0.0000e+00
       13  1    6    6    0    0 +1.29095890055e+01 +1.41146071593e+01 -2.70211212830e+01  3.31063707247e+01  1.05658000000e-01 0.0000e+00 -1.0000e+00
      -14  1    6    6    0    0 -1.86458697175e+01 +1.22652195833e+02 +1.96565176144e+01  1.25608949860e+02  0.00000000000e+00 0.0000e+00 1.0000e+00
        2  1    1    2  502    0 +2.01462577351e+01 -1.31547328076e+02 -2.84964192848e+02  3.14507972602e+02  3.20000000000e-01 0.0000e+00 -1.0000e+00
#aMCatNLO 2  0  0  1  2 0.13308107E+03 0.00000000E+00  9  5  0 0.00000000E+00 0.00000000E+00 0.00000000E+00 0.00000000E+00 0.00000000E+00
  <rwgt>
   <wgt id='1001'>  +5.7119735e+00 </wgt>
   <wgt id='1002'>  +5.2185657e+00 </wgt>
   <wgt id='1003'>  +6.3110763e+00 </wgt>
   <wgt id='1004'>  +5.5766444e+00 </wgt>
   <wgt id='1005'>  +5.0950903e+00 </wgt>
   <wgt id='1006'>  +6.1614241e+00 </wgt>
   <wgt id='1007'>  +5.7687722e+00 </wgt>
   <wgt id='1008'>  +5.2704254e+00 </wgt>
   <wgt id='1009'>  +6.3742957e+00 </wgt>
   <wgt id='1010'>  +0.0000000e+00 </wgt>
   <wgt id='1011'>  +0.0000000e+00 </wgt>
   <wgt id='1012'>  +0.0000000e+00 </wgt>
   <wgt id='1013'>  +0.0000000e+00 </wgt>
   <wgt id='1014'>  +0.0000000e+00 </wgt>
   <wgt id='1015'>  +0.0000000e+00 </wgt>
   <wgt id='1016'>  +0.0000000e+00 </wgt>
   <wgt id='1017'>  +0.0000000e+00 </wgt>
   <wgt id='1018'>  +0.0000000e+00 </wgt>
   <wgt id='1019'>  +5.7119735e+00 </wgt>
   <wgt id='1020'>  +5.2185657e+00 </wgt>
   <wgt id='1021'>  +6.3110763e+00 </wgt>
   <wgt id='1022'>  +5.5766444e+00 </wgt>
   <wgt id='1023'>  +5.0950903e+00 </wgt>
   <wgt id='1024'>  +6.1614241e+00 </wgt>
   <wgt id='1025'>  +5.7687722e+00 </wgt>
   <wgt id='1026'>  +5.2704254e+00 </wgt>
   <wgt id='1027'>  +6.3742957e+00 </wgt>
</rwgt>
</event> 
<event>
  8      0 +5.7119646e+00 8.99163960e+01 7.54677110e-03 9.96184880e-02
       -1 -1    0    0    0  501 +0.00000000000e+00 +0.00000000000e+00 +7.12752213396e+02  7.12752285230e+02  3.20000000000e-01 0.0000e+00 1.0000e+00
        1 -1    0    0  501    0 +0.00000000000e+00 +0.00000000000e+00 -1.46063353087e+01  1.46098402164e+01  3.20000000000e-01 0.0000e+00 -1.0000e+00
       24  2    1    2    0    0 -2.48250769819e+01 +3.16540456739e+01 +5.14734013833e+02  5.22181132993e+02  7.81266126438e+01 0.0000e+00 0.0000e+00
      -13  1    3    3    0    0 -4.66626724348e+01 +4.28342823145e+01 +3.70902773960e+02  3.76272586877e+02  1.05658000000e-01 0.0000e+00 1.0000e+00
       14  1    3    3    0    0 +2.18375954529e+01 -1.11802366406e+01 +1.43831239873e+02  1.45908546117e+02  0.00000000000e+00 0.0000e+00 -1.0000e+00
      -24  2    1    2    0    0 +2.48250769819e+01 -3.16540456739e+01 +1.83411864255e+02  2.05180992453e+02  8.27107288089e+01 0.0000e+00 0.0000e+00
       13  1    6    6    0    0 +1.77019599346e+01 +2.43640687539e+01 +3.38184279005e+01  4.52842628410e+01  1.05658000000e-01 0.0000e+00 -1.0000e+00
      -14  1    6    6    0    0 +7.12311704727e+00 -5.60181144278e+01 +1.49593436354e+02  1.59896729612e+02  0.00000000000e+00 0.0000e+00 1.0000e+00
#aMCatNLO 1  0  0  2  1 0.30541658E+03 0.00000000E+00  9  5  0 0.00000000E+00 0.00000000E+00 0.00000000E+00 0.00000000E+00 0.00000000E+00
  <rwgt>
   <wgt id='1001'>  +5.7119735e+00 </wgt>
   <wgt id='1002'>  +5.5168823e+00 </wgt>
   <wgt id='1003'>  +5.9544793e+00 </wgt>
   <wgt id='1004'>  +4.9898892e+00 </wgt>
   <wgt id='1005'>  +4.8782180e+00 </wgt>
   <wgt id='1006'>  +5.1291695e+00 </wgt>
   <wgt id='1007'>  +6.4557895e+00 </wgt>
   <wgt id='1008'>  +6.1708082e+00 </wgt>
   <wgt id='1009'>  +6.8094232e+00 </wgt>
   <wgt id='1010'>  +3.6655905e+00 </wgt>
   <wgt id='1011'>  +3.6655905e+00 </wgt>
   <wgt id='1012'>  +3.6655905e+00 </wgt>
   <wgt id='1013'>  +3.8174159e+00 </wgt>
   <wgt id='1014'>  +3.8174159e+00 </wgt>
   <wgt id='1015'>  +3.8174159e+00 </wgt>
   <wgt id='1016'>  +3.4701536e+00 </wgt>
   <wgt id='1017'>  +3.4701536e+00 </wgt>
   <wgt id='1018'>  +3.4701536e+00 </wgt>
   <wgt id='1019'>  +2.0463337e+00 </wgt>
   <wgt id='1020'>  +1.8511437e+00 </wgt>
   <wgt id='1021'>  +2.2888888e+00 </wgt>
   <wgt id='1022'>  +1.1728191e+00 </wgt>
   <wgt id='1023'>  +1.0609503e+00 </wgt>
   <wgt id='1024'>  +1.3118524e+00 </wgt>
   <wgt id='1025'>  +2.9853396e+00 </wgt>
   <wgt id='1026'>  +2.7005559e+00 </wgt>
   <wgt id='1027'>  +3.3391708e+00 </wgt>
</rwgt>
</event> 
<event>
  8      0 +5.7119646e+00 8.23615940e+01 7.54677110e-03 1.14690660e-01
       -2 -1    0    0    0  501 +0.00000000000e+00 +0.00000000000e+00 +9.51440666695e+01  9.51446047993e+01  3.20000000000e-01 0.0000e+00 1.0000e+00
        2 -1    0    0  501    0 +0.00000000000e+00 +0.00000000000e+00 -7.73030506462e+01  7.73037129717e+01  3.20000000000e-01 0.0000e+00 -1.0000e+00
       24  2    1    2    0    0 +3.75160725737e+00 -1.04570982985e+01 -1.37628045814e+01  8.16405397487e+01  7.97015525487e+01 0.0000e+00 0.0000e+00
      -11  1    3    3    0    0 -3.25532617207e+01 +1.44678061510e+01 -4.19327799283e-01  3.56259469985e+01  5.10999000000e-04 0.0000e+00 1.0000e+00
       12  1    3    3    0    0 +3.63048689780e+01 -2.49249044495e+01 -1.33434767822e+01  4.60145927502e+01  0.00000000000e+00 0.0000e+00 -1.0000e+00
      -24  2    1    2    0    0 -3.75160725737e+00 +1.04570982985e+01 +3.16038206047e+01  9.08077780223e+01  8.44027583121e+01 0.0000e+00 0.0000e+00
       11  1    6    6    0    0 +3.10102618123e+01 +2.23486911131e+01 +3.75586444941e+01  5.35887311721e+01  5.10999000000e-04 0.0000e+00 -1.0000e+00
      -12  1    6    6    0    0 -3.47618690697e+01 -1.18915928145e+01 -5.95482388940e+00  3.72190468502e+01  0.00000000000e+00 0.0000e+00 1.0000e+00
#aMCatNLO 1  0  0  2  1 0.58682763E+02 0.00000000E+00  9  5  0 0.00000000E+00 0.00000000E+00 0.00000000E+00 0.00000000E+00 0.00000000E+00
  <rwgt>
   <wgt id='1001'>  +5.7114796e+00 </wgt>
   <wgt id='1002'>  +5.6428273e+00 </wgt>
   <wgt id='1003'>  +5.7984063e+00 </wgt>
   <wgt id='1004'>  +6.1115400e+00 </wgt>
   <wgt id='1005'>  +6.0409121e+00 </wgt>
   <wgt id='1006'>  +6.1994545e+00 </wgt>
   <wgt id='1007'>  +5.2319010e+00 </wgt>
   <wgt id='1008'>  +5.1652243e+00 </wgt>
   <wgt id='1009'>  +5.3148765e+00 </wgt>
   <wgt id='1010'>  +4.9943343e+00 </wgt>
   <wgt id='1011'>  +4.9943343e+00 </wgt>
   <wgt id='1012'>  +4.9943343e+00 </wgt>
   <wgt id='1013'>  +5.3815533e+00 </wgt>
   <wgt id='1014'>  +5.3815533e+00 </wgt>
   <wgt id='1015'>  +5.3815533e+00 </wgt>
   <wgt id='1016'>  +4.5425130e+00 </wgt>
   <wgt id='1017'>  +4.5425130e+00 </wgt>
   <wgt id='1018'>  +4.5425130e+00 </wgt>
   <wgt id='1019'>  +7.1749104e-01 </wgt>
   <wgt id='1020'>  +6.4819663e-01 </wgt>
   <wgt id='1021'>  +8.0387446e-01 </wgt>
   <wgt id='1022'>  +7.2959164e-01 </wgt>
   <wgt id='1023'>  +6.5916125e-01 </wgt>
   <wgt id='1024'>  +8.1750615e-01 </wgt>
   <wgt id='1025'>  +6.8928926e-01 </wgt>
   <wgt id='1026'>  +6.2271130e-01 </wgt>
   <wgt id='1027'>  +7.7231414e-01 </wgt>
</rwgt>
</event> 
<event>
  8      0 -5.7119646e+00 5.50506160e+01 7.54677110e-03 1.20681540e-01
       -2 -1    0    0    0  501 +0.00000000000e+00 +0.00000000000e+00 +4.97710568349e+00  4.98738217752e+00  3.20000000000e-01 0.0000e+00 1.0000e+00
        2 -1    0    0  501    0 +0.00000000000e+00 +0.00000000000e+00 -1.40037209367e+03  1.40037213024e+03  3.20000000000e-01 0.0000e+00 -1.0000e+00
       24  2    1    2    0    0 -1.60340993690e+01 +7.31903919205e+00 -6.29664509316e+02  6.35129653038e+02  8.12503612156e+01 0.0000e+00 0.0000e+00
      -13  1    3    3    0    0 -1.12357682524e+01 +2.74981362528e+01 -8.44739670600e+01  8.95446942039e+01  1.05658000000e-01 0.0000e+00 1.0000e+00
       14  1    3    3    0    0 -4.79833111661e+00 -2.01790970608e+01 -5.45190542257e+02  5.45584958834e+02  0.00000000000e+00 0.0000e+00 -1.0000e+00
      -24  2    1    2    0    0 +1.60340993690e+01 -7.31903919205e+00 -7.65730478674e+02  7.70229859376e+02  8.12416741958e+01 0.0000e+00 0.0000e+00
       13  1    6    6    0    0 +3.55115138261e+01 -2.68520686684e+01 -2.62879127777e+02  2.66622482530e+02  1.05658000000e-01 0.0000e+00 -1.0000e+00
      -14  1    6    6    0    0 -1.94774144571e+01 +1.95330294763e+01 -5.02851350897e+02  5.03607376846e+02  0.00000000000e+00 0.0000e+00 1.0000e+00
#aMCatNLO 1  0  0  2  1 0.58682763E+02 0.00000000E+00  9  5  0 0.00000000E+00 0.00000000E+00 0.00000000E+00 0.00000000E+00 0.00000000E+00
  <rwgt>
   <wgt id='1001'>  -5.7114796e+00 </wgt>
   <wgt id='1002'>  -5.1607792e+00 </wgt>
   <wgt id='1003'>  -6.3984969e+00 </wgt>
   <wgt id='1004'>  -6.0616559e+00 </wgt>
   <wgt id='1005'>  -5.4768763e+00 </wgt>
   <wgt id='1006'>  -6.7906549e+00 </wgt>
   <wgt id='1007'>  -5.2941327e+00 </wgt>
   <wgt id='1008'>  -4.7835864e+00 </wgt>
   <wgt id='1009'>  -5.9307720e+00 </wgt>
   <wgt id='1010'>  +0.0000000e+00 </wgt>
   <wgt id='1011'>  +0.0000000e+00 </wgt>
   <wgt id='1012'>  +0.0000000e+00 </wgt>
   <wgt id='1013'>  +0.0000000e+00 </wgt>
   <wgt id='1014'>  +0.0000000e+00 </wgt>
   <wgt id='1015'>  +0.0000000e+00 </wgt>
   <wgt id='1016'>  +0.0000000e+00 </wgt>
   <wgt id='1017'>  +0.0000000e+00 </wgt>
   <wgt id='1018'>  +0.0000000e+00 </wgt>
   <wgt id='1019'>  -5.7114796e+00 </wgt>
   <wgt id='1020'>  -5.1607792e+00 </wgt>
   <wgt id='1021'>  -6.3984969e+00 </wgt>
   <wgt id='1022'>  -6.0616559e+00 </wgt>
   <wgt id='1023'>  -5.4768763e+00 </wgt>
   <wgt id='1024'>  -6.7906549e+00 </wgt>
   <wgt id='1025'>  -5.2941327e+00 </wgt>
   <wgt id='1026'>  -4.7835864e+00 </wgt>
   <wgt id='1027'>  -5.9307720e+00 </wgt>
</rwgt>
</event> 
<event>
  8      0 +5.7119646e+00 8.47447300e+01 7.54677110e-03 1.10589010e-01
        4 -1    0    0  501    0 +0.00000000000e+00 +0.00000000000e+00 +2.00631105362e+01  2.01228950300e+01  1.55000000000e+00 0.0000e+00 -1.0000e+00
       -4 -1    0    0    0  501 +0.00000000000e+00 +0.00000000000e+00 -3.59604862413e+02  3.59608202869e+02  1.55000000000e+00 0.0000e+00 1.0000e+00
       24  2    1    2    0    0 -2.48291402521e+01 +1.79867494674e+01 -1.80379427755e+02  1.98984808865e+02  7.82189672633e+01 0.0000e+00 0.0000e+00
      -11  1    3    3    0    0 -3.16332103324e+01 +4.56322457142e+01 -1.21190818065e+02  1.33304824476e+02  5.10999000000e-04 0.0000e+00 1.0000e+00
       12  1    3    3    0    0 +6.80407008027e+00 -2.76454962468e+01 -5.91886096896e+01  6.56799843893e+01  0.00000000000e+00 0.0000e+00 -1.0000e+00
      -24  2    1    2    0    0 +2.48291402521e+01 -1.79867494674e+01 -1.59162324122e+02  1.80746289035e+02  7.99785359823e+01 0.0000e+00 0.0000e+00
       13  1    6    6    0    0 -1.42188102375e+01 -3.88444613420e+01 -7.87935928514e+01  8.89916185917e+01  1.05658000000e-01 0.0000e+00 -1.0000e+00
      -14  1    6    6    0    0 +3.90479504896e+01 +2.08577118746e+01 -8.03687312703e+01  9.17546704429e+01  0.00000000000e+00 0.0000e+00 1.0000e+00
#aMCatNLO 1  0  0  1  2 0.10272805E+03 0.00000000E+00  9  5  0 0.00000000E+00 0.00000000E+00 0.00000000E+00 0.00000000E+00 0.00000000E+00
  <rwgt>
   <wgt id='1001'>  +5.7119735e+00 </wgt>
   <wgt id='1002'>  +5.6546809e+00 </wgt>
   <wgt id='1003'>  +5.7835893e+00 </wgt>
   <wgt id='1004'>  +6.5259236e+00 </wgt>
   <wgt id='1005'>  +6.4641859e+00 </wgt>
   <wgt id='1006'>  +6.6024783e+00 </wgt>
   <wgt id='1007'>  +4.7811663e+00 </wgt>
   <wgt id='1008'>  +4.7304920e+00 </wgt>
   <wgt id='1009'>  +4.8445833e+00 </wgt>
   <wgt id='1010'>  +5.1168219e+00 </wgt>
   <wgt id='1011'>  +5.1168219e+00 </wgt>
   <wgt id='1012'>  +5.1168219e+00 </wgt>
   <wgt id='1013'>  +5.8882964e+00 </wgt>
   <wgt id='1014'>  +5.8882964e+00 </wgt>
   <wgt id='1015'>  +5.8882964e+00 </wgt>
   <wgt id='1016'>  +4.2525927e+00 </wgt>
   <wgt id='1017'>  +4.2525927e+00 </wgt>
   <wgt id='1018'>  +4.2525927e+00 </wgt>
   <wgt id='1019'>  +5.9500342e-01 </wgt>
   <wgt id='1020'>  +5.3771081e-01 </wgt>
   <wgt id='1021'>  +6.6627344e-01 </wgt>
   <wgt id='1022'>  +6.3728140e-01 </wgt>
   <wgt id='1023'>  +5.7598820e-01 </wgt>
   <wgt id='1024'>  +7.1363861e-01 </wgt>
   <wgt id='1025'>  +5.2872180e-01 </wgt>
   <wgt id='1026'>  +4.7782523e-01 </wgt>
   <wgt id='1027'>  +5.9204001e-01 </wgt>
</rwgt>
</event> 
<event>
  9      0 +5.7119646e+00 1.51058330e+02 7.54677110e-03 1.00491670e-01
        2 -1    0    0  501    0 +0.00000000000e+00 +0.00000000000e+00 +9.89014397462e+02  9.89014449231e+02  3.20000000000e-01 0.0000e+00 -1.0000e+00
       21 -1    0    0  502  501 +0.00000000000e+00 +0.00000000000e+00 -1.15483352956e+02  1.15485788346e+02  7.50000000000e-01 0.0000e+00 -1.0000e+00
       24  2    1    2    0    0 -1.28308380934e+01 -3.23379828427e+01 +3.55924316384e+02  3.66682529073e+02  8.10159403637e+01 0.0000e+00 0.0000e+00
      -13  1    3    3    0    0 -1.76604269671e+01 +1.14691004941e+01 +2.43526201633e+01  3.21945992246e+01  1.05658000000e-01 0.0000e+00 1.0000e+00
       14  1    3    3    0    0 +4.82958887374e+00 -4.38070833368e+01 +3.31571696221e+02  3.34487929848e+02  0.00000000000e+00 0.0000e+00 -1.0000e+00
      -24  2    1    2    0    0 +8.15975899002e+01 +2.63581155299e+02 +2.53018246155e+02  3.79754253023e+02  6.37327835226e+01 0.0000e+00 0.0000e+00
       11  1    6    6    0    0 +4.98266754730e+01 +2.19547434623e+02 +1.77223552593e+02  2.86516947548e+02  5.10999000000e-04 0.0000e+00 -1.0000e+00
      -12  1    6    6    0    0 +3.17709144271e+01 +4.40337206759e+01 +7.57946935623e+01  9.32373054753e+01  0.00000000000e+00 0.0000e+00 1.0000e+00
        2  1    1    2  502    0 -6.87667518068e+01 -2.31243172456e+02 +2.64588481967e+02  3.58063455481e+02  3.20000000000e-01 0.0000e+00 -1.0000e+00
#aMCatNLO 2  0  0  2  1 0.24125147E+03 0.00000000E+00  9  5  0 0.00000000E+00 0.00000000E+00 0.00000000E+00 0.00000000E+00 0.00000000E+00
  <rwgt>
   <wgt id='1001'>  +5.7119735e+00 </wgt>
   <wgt id='1002'>  +5.2486937e+00 </wgt>
   <wgt id='1003'>  +6.2671191e+00 </wgt>
   <wgt id='1004'>  +5.4610714e+00 </wgt>
   <wgt id='1005'>  +5.0180416e+00 </wgt>
   <wgt id='1006'>  +5.9920158e+00 </wgt>
   <wgt id='1007'>  +5.9549732e+00 </wgt>
   <wgt id='1008'>  +5.4714434e+00 </wgt>
   <wgt id='1009'>  +6.5338260e+00 </wgt>
   <wgt id='1010'>  +0.0000000e+00 </wgt>
   <wgt id='1011'>  +0.0000000e+00 </wgt>
   <wgt id='1012'>  +0.0000000e+00 </wgt>
   <wgt id='1013'>  +0.0000000e+00 </wgt>
   <wgt id='1014'>  +0.0000000e+00 </wgt>
   <wgt id='1015'>  +0.0000000e+00 </wgt>
   <wgt id='1016'>  +0.0000000e+00 </wgt>
   <wgt id='1017'>  +0.0000000e+00 </wgt>
   <wgt id='1018'>  +0.0000000e+00 </wgt>
   <wgt id='1019'>  +5.7119735e+00 </wgt>
   <wgt id='1020'>  +5.2486937e+00 </wgt>
   <wgt id='1021'>  +6.2671191e+00 </wgt>
   <wgt id='1022'>  +5.4610714e+00 </wgt>
   <wgt id='1023'>  +5.0180416e+00 </wgt>
   <wgt id='1024'>  +5.9920158e+00 </wgt>
   <wgt id='1025'>  +5.9549732e+00 </wgt>
   <wgt id='1026'>  +5.4714434e+00 </wgt>
   <wgt id='1027'>  +6.5338260e+00 </wgt>
</rwgt>
</event> 
<event>
  8      0 +5.7119646e+00 8.68475060e+01 7.54677110e-03 1.10206010e-01
        4 -1    0    0  501    0 +0.00000000000e+00 +0.00000000000e+00 +8.86983632864e+02  8.86984987172e+02  1.55000000000e+00 0.0000e+00 -1.0000e+00
       -4 -1    0    0    0  501 +0.00000000000e+00 +0.00000000000e+00 -2.56976553600e+01  2.57443584306e+01  1.55000000000e+00 0.0000e+00 1.0000e+00
       24  2    1    2    0    0 +2.43692043157e+01 -2.14514880935e+01 +8.04010599616e+02  8.08822112245e+02  8.18910282081e+01 0.0000e+00 0.0000e+00
      -11  1    3    3    0    0 -3.47809031604e+00 +2.03470398525e+00 +4.31554407119e-02  4.02976366643e+00  5.10999000000e-04 0.0000e+00 1.0000e+00
       12  1    3    3    0    0 +2.78472946317e+01 -2.34861920787e+01 +8.03967444175e+02  8.04792348578e+02  0.00000000000e+00 0.0000e+00 -1.0000e+00
      -24  2    1    2    0    0 -2.43692043157e+01 +2.14514880935e+01 +5.72753778884e+01  1.03907233358e+02  8.03879329968e+01 0.0000e+00 0.0000e+00
       11  1    6    6    0    0 +4.44868343079e+00 +2.74809125684e+01 +6.72799411039e+01  7.28119620328e+01  5.10999000000e-04 0.0000e+00 -1.0000e+00
      -12  1    6    6    0    0 -2.88178877464e+01 -6.02942447494e+00 -1.00045632155e+01  3.10952713254e+01  0.00000000000e+00 0.0000e+00 1.0000e+00
#aMCatNLO 1  0  0  2  1 0.10630571E+03 0.00000000E+00  9  5  0 0.00000000E+00 0.00000000E+00 0.00000000E+00 0.00000000E+00 0.00000000E+00
  <rwgt>
   <wgt id='1001'>  +5.7119735e+00 </wgt>
   <wgt id='1002'>  +5.5647908e+00 </wgt>
   <wgt id='1003'>  +5.8952111e+00 </wgt>
   <wgt id='1004'>  +3.4946511e+00 </wgt>
   <wgt id='1005'>  +3.6032601e+00 </wgt>
   <wgt id='1006'>  +3.3595196e+00 </wgt>
   <wgt id='1007'>  +7.4376662e+00 </wgt>
   <wgt id='1008'>  +7.0726728e+00 </wgt>
   <wgt id='1009'>  +7.8920558e+00 </wgt>
   <wgt id='1010'>  +4.1772233e+00 </wgt>
   <wgt id='1011'>  +4.1772233e+00 </wgt>
   <wgt id='1012'>  +4.1772233e+00 </wgt>
   <wgt id='1013'>  +4.6275135e+00 </wgt>
   <wgt id='1014'>  +4.6275135e+00 </wgt>
   <wgt id='1015'>  +4.6275135e+00 </wgt>
   <wgt id='1016'>  +3.6257326e+00 </wgt>
   <wgt id='1017'>  +3.6257326e+00 </wgt>
   <wgt id='1018'>  +3.6257326e+00 </wgt>
   <wgt id='1019'>  +1.5348984e+00 </wgt>
   <wgt id='1020'>  +1.3877651e+00 </wgt>
   <wgt id='1021'>  +1.7179878e+00 </wgt>
   <wgt id='1022'>  -1.1329612e+00 </wgt>
   <wgt id='1023'>  -1.0243028e+00 </wgt>
   <wgt id='1024'>  -1.2680927e+00 </wgt>
   <wgt id='1025'>  +3.8120817e+00 </wgt>
   <wgt id='1026'>  +3.4465945e+00 </wgt>
   <wgt id='1027'>  +4.2666195e+00 </wgt>
</rwgt>
</event> 
<event>
  9      0 +5.7119646e+00 8.46090040e+01 7.54677110e-03 1.10127580e-01
       -2 -1    0    0    0  502 +0.00000000000e+00 +0.00000000000e+00 +1.12558282327e+02  1.12558737201e+02  3.20000000000e-01 0.0000e+00 1.0000e+00
        2 -1    0    0  501    0 +0.00000000000e+00 +0.00000000000e+00 -2.91185131169e+02  2.91185307002e+02  3.20000000000e-01 0.0000e+00 -1.0000e+00
       24  2    1    2    0    0 +1.43243849154e+01 -3.72221659675e+01 -1.34468363109e+02  1.61316818480e+02  7.96912642934e+01 0.0000e+00 0.0000e+00
      -11  1    3    3    0    0 -1.57654305731e+01 -5.24646581514e+01 -7.39158296120e+01  9.20034728888e+01  5.10999000000e-04 0.0000e+00 1.0000e+00
       12  1    3    3    0    0 +3.00898154885e+01 +1.52424921839e+01 -6.05525334970e+01  6.93133455909e+01  0.00000000000e+00 0.0000e+00 -1.0000e+00
      -24  2    1    2    0    0 -3.10984758479e+01 -7.03336402038e+01 -6.80607852686e+01  1.30975424523e+02  8.12917904414e+01 0.0000e+00 0.0000e+00
       13  1    6    6    0    0 +6.09205667048e+00 +1.44878287656e+01 +5.29661859404e-01  1.57258399494e+01  1.05658000000e-01 0.0000e+00 -1.0000e+00
      -14  1    6    6    0    0 -3.71905325184e+01 -8.48214689694e+01 -6.85904471280e+01  1.15249584573e+02  0.00000000000e+00 0.0000e+00 1.0000e+00
       21  1    1    2  501  502 +1.67740909325e+01 +1.07555806171e+02 +2.39022995355e+01  1.11451801201e+02  7.50000000000e-01 0.0000e+00 -1.0000e+00
#aMCatNLO 2  0  0  1  1 0.10888106E+03 0.00000000E+00  9  5  0 0.00000000E+00 0.00000000E+00 0.00000000E+00 0.00000000E+00 0.00000000E+00
  <rwgt>
   <wgt id='1001'>  +5.7119735e+00 </wgt>
   <wgt id='1002'>  +5.2067121e+00 </wgt>
   <wgt id='1003'>  +6.3288568e+00 </wgt>
   <wgt id='1004'>  +5.8685404e+00 </wgt>
   <wgt id='1005'>  +5.3494497e+00 </wgt>
   <wgt id='1006'>  +6.5022163e+00 </wgt>
   <wgt id='1007'>  +5.5040409e+00 </wgt>
   <wgt id='1008'>  +5.0170538e+00 </wgt>
   <wgt id='1009'>  +6.0982047e+00 </wgt>
   <wgt id='1010'>  +0.0000000e+00 </wgt>
   <wgt id='1011'>  +0.0000000e+00 </wgt>
   <wgt id='1012'>  +0.0000000e+00 </wgt>
   <wgt id='1013'>  +0.0000000e+00 </wgt>
   <wgt id='1014'>  +0.0000000e+00 </wgt>
   <wgt id='1015'>  +0.0000000e+00 </wgt>
   <wgt id='1016'>  +0.0000000e+00 </wgt>
   <wgt id='1017'>  +0.0000000e+00 </wgt>
   <wgt id='1018'>  +0.0000000e+00 </wgt>
   <wgt id='1019'>  +5.7119735e+00 </wgt>
   <wgt id='1020'>  +5.2067121e+00 </wgt>
   <wgt id='1021'>  +6.3288568e+00 </wgt>
   <wgt id='1022'>  +5.8685404e+00 </wgt>
   <wgt id='1023'>  +5.3494497e+00 </wgt>
   <wgt id='1024'>  +6.5022163e+00 </wgt>
   <wgt id='1025'>  +5.5040409e+00 </wgt>
   <wgt id='1026'>  +5.0170538e+00 </wgt>
   <wgt id='1027'>  +6.0982047e+00 </wgt>
</rwgt>
</event> 
<event>
  9      0 +5.7119646e+00 8.67850570e+01 7.54677110e-03 1.16193020e-01
       -4 -1    0    0    0  501 +0.00000000000e+00 +0.00000000000e+00 +5.42218411554e+02  5.42220626986e+02  1.55000000000e+00 0.0000e+00 1.0000e+00
       21 -1    0    0  501  502 +0.00000000000e+00 +0.00000000000e+00 -9.67065654354e+01  9.67094736741e+01  7.50000000000e-01 0.0000e+00 1.0000e+00
       24  2    1    2    0    0 +4.74015128322e+01 -1.92948693742e+01 -1.73585552500e+01  9.76614950261e+01  8.13464981878e+01 0.0000e+00 0.0000e+00
      -13  1    3    3    0    0 +1.93602058737e+01 +8.62561191005e+00 +2.95031894252e+01  3.63272363684e+01  1.05658000000e-01 0.0000e+00 1.0000e+00
       14  1    3    3    0    0 +2.80413069585e+01 -2.79204812843e+01 -4.68617446752e+01  6.13342586577e+01  0.00000000000e+00 0.0000e+00 -1.0000e+00
      -24  2    1    2    0    0 -1.33058739795e+01 +5.56226422513e+00 +4.89273717287e+02  4.95984672231e+02  8.00252434822e+01 0.0000e+00 0.0000e+00
       13  1    6    6    0    0 +2.72054558281e+01 +1.65860973925e+01 +1.13980348416e+02  1.18350185645e+02  1.05658000000e-01 0.0000e+00 -1.0000e+00
      -14  1    6    6    0    0 -4.05113298075e+01 -1.10238331674e+01 +3.75293368871e+02  3.77634486586e+02  0.00000000000e+00 0.0000e+00 1.0000e+00
       -4  1    1    2    0  502 -3.40956388527e+01 +1.37326051491e+01 -2.64033159180e+01  4.52839334027e+01  1.55000000000e+00 0.0000e+00 1.0000e+00
#aMCatNLO 2  0  0  2  1 0.36757272E+02 0.00000000E+00  9  5  0 0.00000000E+00 0.00000000E+00 0.00000000E+00 0.00000000E+00 0.00000000E+00
  <rwgt>
   <wgt id='1001'>  +5.7114796e+00 </wgt>
   <wgt id='1002'>  +5.1805353e+00 </wgt>
   <wgt id='1003'>  +6.3683689e+00 </wgt>
   <wgt id='1004'>  +5.8250770e+00 </wgt>
   <wgt id='1005'>  +5.2827729e+00 </wgt>
   <wgt id='1006'>  +6.4943139e+00 </wgt>
   <wgt id='1007'>  +5.4665044e+00 </wgt>
   <wgt id='1008'>  +4.9577856e+00 </wgt>
   <wgt id='1009'>  +6.0952413e+00 </wgt>
   <wgt id='1010'>  +0.0000000e+00 </wgt>
   <wgt id='1011'>  +0.0000000e+00 </wgt>
   <wgt id='1012'>  +0.0000000e+00 </wgt>
   <wgt id='1013'>  +0.0000000e+00 </wgt>
   <wgt id='1014'>  +0.0000000e+00 </wgt>
   <wgt id='1015'>  +0.0000000e+00 </wgt>
   <wgt id='1016'>  +0.0000000e+00 </wgt>
   <wgt id='1017'>  +0.0000000e+00 </wgt>
   <wgt id='1018'>  +0.0000000e+00 </wgt>
   <wgt id='1019'>  +5.7114796e+00 </wgt>
   <wgt id='1020'>  +5.1805353e+00 </wgt>
   <wgt id='1021'>  +6.3683689e+00 </wgt>
   <wgt id='1022'>  +5.8250770e+00 </wgt>
   <wgt id='1023'>  +5.2827729e+00 </wgt>
   <wgt id='1024'>  +6.4943139e+00 </wgt>
   <wgt id='1025'>  +5.4665044e+00 </wgt>
   <wgt id='1026'>  +4.9577856e+00 </wgt>
   <wgt id='1027'>  +6.0952413e+00 </wgt>
</rwgt>
</event> 
<event>
  9      0 +5.7119646e+00 2.14409750e+02 7.54677110e-03 1.01134740e-01
        1 -1    0    0  501    0 +0.00000000000e+00 +0.00000000000e+00 +1.56708213299e+03  1.56708216566e+03  3.20000000000e-01 0.0000e+00 -1.0000e+00
       21 -1    0    0  502  501 +0.00000000000e+00 +0.00000000000e+00 -5.66394319580e+01  5.66443973622e+01  7.50000000000e-01 0.0000e+00 -1.0000e+00
       24  2    1    2    0    0 -2.01468529536e+02 +5.93087110492e+01 +5.33012913362e+02  5.78771024555e+02  8.22559508727e+01 0.0000e+00 0.0000e+00
      -11  1    3    3    0    0 -6.13743801036e+01 +4.07943031743e+01 +2.73766525586e+02  2.83512081288e+02  5.10999000000e-04 0.0000e+00 1.0000e+00
       12  1    3    3    0    0 -1.40094149433e+02 +1.85144078749e+01 +2.59246387776e+02  2.95258943267e+02  0.00000000000e+00 0.0000e+00 -1.0000e+00
      -24  2    1    2    0    0 +1.94843858366e+02 +7.57605971162e+01 +4.84292935981e+02  5.33612540894e+02  8.06157474622e+01 0.0000e+00 0.0000e+00
       11  1    6    6    0    0 +1.96123931598e+02 +7.67052588253e+01 +4.25147050463e+02  4.74445263223e+02  5.10999000000e-04 0.0000e+00 -1.0000e+00
      -12  1    6    6    0    0 -1.28007323147e+00 -9.44661709147e-01 +5.91458855180e+01  5.91672776704e+01  0.00000000000e+00 0.0000e+00 1.0000e+00
        1  1    1    2  502    0 +6.62467117017e+00 -1.35069308165e+02 +4.93136851686e+02  5.11342997574e+02  3.20000000000e-01 0.0000e+00 -1.0000e+00
#aMCatNLO 2  0  0  2  1 0.13523167E+03 0.00000000E+00  9  5  0 0.00000000E+00 0.00000000E+00 0.00000000E+00 0.00000000E+00 0.00000000E+00
  <rwgt>
   <wgt id='1001'>  +5.7119735e+00 </wgt>
   <wgt id='1002'>  +5.2457303e+00 </wgt>
   <wgt id='1003'>  +6.2710703e+00 </wgt>
   <wgt id='1004'>  +5.4398337e+00 </wgt>
   <wgt id='1005'>  +4.9958160e+00 </wgt>
   <wgt id='1006'>  +5.9722597e+00 </wgt>
   <wgt id='1007'>  +5.9707780e+00 </wgt>
   <wgt id='1008'>  +5.4832970e+00 </wgt>
   <wgt id='1009'>  +6.5555577e+00 </wgt>
   <wgt id='1010'>  +0.0000000e+00 </wgt>
   <wgt id='1011'>  +0.0000000e+00 </wgt>
   <wgt id='1012'>  +0.0000000e+00 </wgt>
   <wgt id='1013'>  +0.0000000e+00 </wgt>
   <wgt id='1014'>  +0.0000000e+00 </wgt>
   <wgt id='1015'>  +0.0000000e+00 </wgt>
   <wgt id='1016'>  +0.0000000e+00 </wgt>
   <wgt id='1017'>  +0.0000000e+00 </wgt>
   <wgt id='1018'>  +0.0000000e+00 </wgt>
   <wgt id='1019'>  +5.7119735e+00 </wgt>
   <wgt id='1020'>  +5.2457303e+00 </wgt>
   <wgt id='1021'>  +6.2710703e+00 </wgt>
   <wgt id='1022'>  +5.4398337e+00 </wgt>
   <wgt id='1023'>  +4.9958160e+00 </wgt>
   <wgt id='1024'>  +5.9722597e+00 </wgt>
   <wgt id='1025'>  +5.9707780e+00 </wgt>
   <wgt id='1026'>  +5.4832970e+00 </wgt>
   <wgt id='1027'>  +6.5555577e+00 </wgt>
</rwgt>
</event> 
<event>
  8      0 +5.7119646e+00 7.64920030e+01 7.54677110e-03 1.11036410e-01
       -2 -1    0    0    0  501 +0.00000000000e+00 +0.00000000000e+00 +1.33785201258e+02  1.33785583961e+02  3.20000000000e-01 0.0000e+00 1.0000e+00
        2 -1    0    0  501    0 +0.00000000000e+00 +0.00000000000e+00 -1.60084029634e+02  1.60084349465e+02  3.20000000000e-01 0.0000e+00 -1.0000e+00
       24  2    1    2    0    0 -7.82754748621e+00 -1.14964076273e+02 -5.22821742516e+01  1.49904627345e+02  8.03738901772e+01 0.0000e+00 0.0000e+00
      -13  1    3    3    0    0 +3.15602138658e+01 -6.88728631858e+01 -4.67532832065e+01  8.90247102599e+01  1.05658000000e-01 0.0000e+00 1.0000e+00
       14  1    3    3    0    0 -3.93877613520e+01 -4.60912130870e+01 -5.52889104512e+00  6.08799170856e+01  0.00000000000e+00 0.0000e+00 -1.0000e+00
      -24  2    1    2    0    0 +7.82754748621e+00 +1.14964076273e+02 +2.59833458760e+01  1.43965306080e+02  8.22974225539e+01 0.0000e+00 0.0000e+00
       13  1    6    6    0    0 -2.84825729913e+01 +3.55793104395e+01 -1.43800844273e+01  4.77906087773e+01  1.05658000000e-01 0.0000e+00 -1.0000e+00
      -14  1    6    6    0    0 +3.63101204775e+01 +7.93847658333e+01 +4.03634303033e+01  9.61746973031e+01  0.00000000000e+00 0.0000e+00 1.0000e+00
#aMCatNLO 1  0  0  1  2 0.10265612E+02 0.00000000E+00  9  5  0 0.00000000E+00 0.00000000E+00 0.00000000E+00 0.00000000E+00 0.00000000E+00
  <rwgt>
   <wgt id='1001'>  +5.7114796e+00 </wgt>
   <wgt id='1002'>  +5.7287662e+00 </wgt>
   <wgt id='1003'>  +5.6862906e+00 </wgt>
   <wgt id='1004'>  +5.8171746e+00 </wgt>
   <wgt id='1005'>  +5.8443392e+00 </wgt>
   <wgt id='1006'>  +5.7791442e+00 </wgt>
   <wgt id='1007'>  +5.8191502e+00 </wgt>
   <wgt id='1008'>  +5.8018636e+00 </wgt>
   <wgt id='1009'>  +5.8364368e+00 </wgt>
   <wgt id='1010'>  +5.7085162e+00 </wgt>
   <wgt id='1011'>  +5.7085162e+00 </wgt>
   <wgt id='1012'>  +5.7085162e+00 </wgt>
   <wgt id='1013'>  +5.9208940e+00 </wgt>
   <wgt id='1014'>  +5.9208940e+00 </wgt>
   <wgt id='1015'>  +5.9208940e+00 </wgt>
   <wgt id='1016'>  +5.4398337e+00 </wgt>
   <wgt id='1017'>  +5.4398337e+00 </wgt>
   <wgt id='1018'>  +5.4398337e+00 </wgt>
   <wgt id='1019'>  +3.4675853e-03 </wgt>
   <wgt id='1020'>  +2.0447532e-02 </wgt>
   <wgt id='1021'>  -2.2134700e-02 </wgt>
   <wgt id='1022'>  -1.0339833e-01 </wgt>
   <wgt id='1023'>  -7.6347330e-02 </wgt>
   <wgt id='1024'>  -1.4146333e-01 </wgt>
   <wgt id='1025'>  +3.7971165e-01 </wgt>
   <wgt id='1026'>  +3.6230161e-01 </wgt>
   <wgt id='1027'>  +3.9640059e-01 </wgt>
</rwgt>
</event> 
<event>
  8      0 +5.7119646e+00 5.25626850e+01 7.54677110e-03 1.20857880e-01
        2 -1    0    0  501    0 +0.00000000000e+00 +0.00000000000e+00 +2.32127490687e+02  2.32127711255e+02  3.20000000000e-01 0.0000e+00 -1.0000e+00
       -2 -1    0    0    0  501 +0.00000000000e+00 +0.00000000000e+00 -9.72176175199e+01  9.72181441720e+01  3.20000000000e-01 0.0000e+00 1.0000e+00
       24  2    1    2    0    0 +9.83862483404e+00 +1.16881545947e+01 +2.05392855870e+02  2.21710132765e+02  8.20715921111e+01 0.0000e+00 0.0000e+00
      -11  1    3    3    0    0 +1.78663096828e+01 -2.00367898628e+01 +2.00655053230e+01  3.35157048832e+01  5.10999000000e-04 0.0000e+00 1.0000e+00
       12  1    3    3    0    0 -8.02768484881e+00 +3.17249444575e+01 +1.85327350547e+02  1.88194427882e+02  0.00000000000e+00 0.0000e+00 -1.0000e+00
      -24  2    1    2    0    0 -9.83862483404e+00 -1.16881545947e+01 -7.04829827035e+01  1.07635722662e+02  7.99011041587e+01 0.0000e+00 0.0000e+00
       13  1    6    6    0    0 -6.10698554600e+00 +3.44772132062e+01 -2.92063452785e+01  4.55960006038e+01  1.05658000000e-01 0.0000e+00 -1.0000e+00
      -14  1    6    6    0    0 -3.73163928804e+00 -4.61653678009e+01 -4.12766374249e+01  6.20397220584e+01  0.00000000000e+00 0.0000e+00 1.0000e+00
#aMCatNLO 1  0  0  1  1 0.95673064E+00 0.00000000E+00  9  5  0 0.00000000E+00 0.00000000E+00 0.00000000E+00 0.00000000E+00 0.00000000E+00
  <rwgt>
   <wgt id='1001'>  +5.7119735e+00 </wgt>
   <wgt id='1002'>  +5.5139189e+00 </wgt>
   <wgt id='1003'>  +5.9554671e+00 </wgt>
   <wgt id='1004'>  +6.5362955e+00 </wgt>
   <wgt id='1005'>  +6.2755154e+00 </wgt>
   <wgt id='1006'>  +6.8583194e+00 </wgt>
   <wgt id='1007'>  +4.9563039e+00 </wgt>
   <wgt id='1008'>  +4.8099608e+00 </wgt>
   <wgt id='1009'>  +5.1360841e+00 </wgt>
   <wgt id='1010'>  +3.5632540e+00 </wgt>
   <wgt id='1011'>  +3.5632540e+00 </wgt>
   <wgt id='1012'>  +3.5632540e+00 </wgt>
   <wgt id='1013'>  +3.7334526e+00 </wgt>
   <wgt id='1014'>  +3.7334526e+00 </wgt>
   <wgt id='1015'>  +3.7334526e+00 </wgt>
   <wgt id='1016'>  +3.3489007e+00 </wgt>
   <wgt id='1017'>  +3.3489007e+00 </wgt>
   <wgt id='1018'>  +3.3489007e+00 </wgt>
   <wgt id='1019'>  +2.1487195e+00 </wgt>
   <wgt id='1020'>  +1.9507143e+00 </wgt>
   <wgt id='1021'>  +2.3924106e+00 </wgt>
   <wgt id='1022'>  +2.8030405e+00 </wgt>
   <wgt id='1023'>  +2.5423098e+00 </wgt>
   <wgt id='1024'>  +3.1249163e+00 </wgt>
   <wgt id='1025'>  +1.6075020e+00 </wgt>
   <wgt id='1026'>  +1.4613071e+00 </wgt>
   <wgt id='1027'>  +1.7868871e+00 </wgt>
</rwgt>
</event> 
</LesHouchesEvents>
